 Entering Gaussian System, Link 0=g16
 Input=/media/dr/Backup_Plus2/nanocar/AU100_surface/anth_cl_100/dft/anth_cl.com
 Output=/media/dr/Backup_Plus2/nanocar/AU100_surface/anth_cl_100/dft/anth_cl.log
 Initial command:
 /opt/g16/l1.exe "/home/dr/scratches/g16/Gau-810411.inp" -scrdir="/home/dr/scratches/g16/"
 Entering Link 1 = /opt/g16/l1.exe PID=    810414.
  
 Copyright (c) 1988-2017, Gaussian, Inc.  All Rights Reserved.
  
 This is part of the Gaussian(R) 16 program.  It is based on
 the Gaussian(R) 09 system (copyright 2009, Gaussian, Inc.),
 the Gaussian(R) 03 system (copyright 2003, Gaussian, Inc.),
 the Gaussian(R) 98 system (copyright 1998, Gaussian, Inc.),
 the Gaussian(R) 94 system (copyright 1995, Gaussian, Inc.),
 the Gaussian 92(TM) system (copyright 1992, Gaussian, Inc.),
 the Gaussian 90(TM) system (copyright 1990, Gaussian, Inc.),
 the Gaussian 88(TM) system (copyright 1988, Gaussian, Inc.),
 the Gaussian 86(TM) system (copyright 1986, Carnegie Mellon
 University), and the Gaussian 82(TM) system (copyright 1983,
 Carnegie Mellon University). Gaussian is a federally registered
 trademark of Gaussian, Inc.
  
 This software contains proprietary and confidential information,
 including trade secrets, belonging to Gaussian, Inc.
  
 This software is provided under written license and may be
 used, copied, transmitted, or stored only in accord with that
 written license.
  
 The following legend is applicable only to US Government
 contracts under FAR:
  
                    RESTRICTED RIGHTS LEGEND
  
 Use, reproduction and disclosure by the US Government is
 subject to restrictions as set forth in subparagraphs (a)
 and (c) of the Commercial Computer Software - Restricted
 Rights clause in FAR 52.227-19.
  
 Gaussian, Inc.
 340 Quinnipiac St., Bldg. 40, Wallingford CT 06492
  
  
 ---------------------------------------------------------------
 Warning -- This program may not be used in any manner that
 competes with the business of Gaussian, Inc. or will provide
 assistance to any competitor of Gaussian, Inc.  The licensee
 of this program is prohibited from giving any competitor of
 Gaussian, Inc. access to this program.  By using this program,
 the user acknowledges that Gaussian, Inc. is engaged in the
 business of creating and licensing software in the field of
 computational chemistry and represents and warrants to the
 licensee that it is not a competitor of Gaussian, Inc. and that
 it will not use this program in any manner prohibited above.
 ---------------------------------------------------------------
  

 Cite this work as:
 Gaussian 16, Revision B.01,
 M. J. Frisch, G. W. Trucks, H. B. Schlegel, G. E. Scuseria, 
 M. A. Robb, J. R. Cheeseman, G. Scalmani, V. Barone, 
 G. A. Petersson, H. Nakatsuji, X. Li, M. Caricato, A. V. Marenich, 
 J. Bloino, B. G. Janesko, R. Gomperts, B. Mennucci, H. P. Hratchian, 
 J. V. Ortiz, A. F. Izmaylov, J. L. Sonnenberg, D. Williams-Young, 
 F. Ding, F. Lipparini, F. Egidi, J. Goings, B. Peng, A. Petrone, 
 T. Henderson, D. Ranasinghe, V. G. Zakrzewski, J. Gao, N. Rega, 
 G. Zheng, W. Liang, M. Hada, M. Ehara, K. Toyota, R. Fukuda, 
 J. Hasegawa, M. Ishida, T. Nakajima, Y. Honda, O. Kitao, H. Nakai, 
 T. Vreven, K. Throssell, J. A. Montgomery, Jr., J. E. Peralta, 
 F. Ogliaro, M. J. Bearpark, J. J. Heyd, E. N. Brothers, K. N. Kudin, 
 V. N. Staroverov, T. A. Keith, R. Kobayashi, J. Normand, 
 K. Raghavachari, A. P. Rendell, J. C. Burant, S. S. Iyengar, 
 J. Tomasi, M. Cossi, J. M. Millam, M. Klene, C. Adamo, R. Cammi, 
 J. W. Ochterski, R. L. Martin, K. Morokuma, O. Farkas, 
 J. B. Foresman, and D. J. Fox, Gaussian, Inc., Wallingford CT, 2016.
 
 ******************************************
 Gaussian 16:  ES64L-G16RevB.01 20-Dec-2017
                10-Mar-2026 
 ******************************************
 %chk=anth_cl.chk
 ------------------------------------------
 # opt b3lyp/6-311+g(d,p) geom=connectivity
 ------------------------------------------
 1/18=20,19=15,26=3,38=1,57=2/1,3;
 2/9=110,12=2,17=6,18=5,40=1/2;
 3/5=4,6=6,7=111,11=2,25=1,30=1,71=1,74=-5/1,2,3;
 4//1;
 5/5=2,38=5/2;
 6/7=2,8=2,9=2,10=2,28=1/1;
 7//1,2,3,16;
 1/18=20,19=15,26=3/3(2);
 2/9=110/2;
 99//99;
 2/9=110/2;
 3/5=4,6=6,7=111,11=2,25=1,30=1,71=1,74=-5/1,2,3;
 4/5=5,16=3,69=1/1;
 5/5=2,38=5/2;
 7//1,2,3,16;
 1/18=20,19=15,26=3/3(-5);
 2/9=110/2;
 6/7=2,8=2,9=2,10=2,19=2,28=1/1;
 99/9=1/99;
 --------------------------------------
 UNITED ATOM STRUCTURE FOR MOLECULE UNL
 --------------------------------------
 Symbolic Z-matrix:
 Charge =  0 Multiplicity = 1
 Cl(PDBName=CL2,ResName=SU8,ResNum=0)  7.373    -2.317     0. 
 C(PDBName=C12,ResName=SU8,ResNum=0)  5.673    -2.258     0. 
 C(PDBName=C11,ResName=SU8,ResNum=0)  4.98     -2.236    -1.214 
 H(PDBName=H6,ResName=SU8,ResNum=0)  5.528    -2.254    -2.168 
 C(PDBName=C10,ResName=SU8,ResNum=0)  3.588    -2.191    -1.21 
 H(PDBName=H5,ResName=SU8,ResNum=0)  3.039    -2.174    -2.164 
 C(PDBName=C9,ResName=SU8,ResNum=0)  2.882    -2.166     0. 
 C(PDBName=C14,ResName=SU8,ResNum=0)  3.588    -2.188     1.21 
 H(PDBName=H8,ResName=SU8,ResNum=0)  3.04     -2.169     2.164 
 C(PDBName=C13,ResName=SU8,ResNum=0)  4.981    -2.234     1.214 
 H(PDBName=H7,ResName=SU8,ResNum=0)  5.528    -2.25      2.168 
 C(PDBName=C8,ResName=SU8,ResNum=0)  1.414    -2.145     0. 
 C(PDBName=C7,ResName=SU8,ResNum=0)  0.711    -3.321     0. 
 H(PDBName=H4,ResName=SU8,ResNum=0)  1.235    -4.289     0. 
 C(PDBName=C6,ResName=SU8,ResNum=0) -0.71     -3.321     0. 
 H(PDBName=H3,ResName=SU8,ResNum=0) -1.234    -4.289     0. 
 C(PDBName=C5,ResName=SU8,ResNum=0) -1.414    -2.145     0. 
 C(PDBName=C4,ResName=SU8,ResNum=0) -2.882    -2.167     0. 
 C(PDBName=C3,ResName=SU8,ResNum=0) -3.588    -2.191     1.21 
 H(PDBName=H2,ResName=SU8,ResNum=0) -3.039    -2.175     2.164 
 C(PDBName=C2,ResName=SU8,ResNum=0) -4.98     -2.235     1.214 
 H(PDBName=H1,ResName=SU8,ResNum=0) -5.528    -2.251     2.168 
 C(PDBName=C1,ResName=SU8,ResNum=0) -5.673    -2.259     0. 
 Cl(PDBName=CL1,ResName=SU8,ResNum=0) -7.373    -2.324     0. 
 C(PDBName=C38,ResName=SU8,ResNum=0) -4.98     -2.233    -1.214 
 H(PDBName=H24,ResName=SU8,ResNum=0) -5.528    -2.247    -2.168 
 C(PDBName=C37,ResName=SU8,ResNum=0) -3.588    -2.189    -1.21 
 H(PDBName=H23,ResName=SU8,ResNum=0) -3.039    -2.172    -2.164 
 C(PDBName=C36,ResName=SU8,ResNum=0) -0.715    -0.887     0. 
 C(PDBName=C15,ResName=SU8,ResNum=0)  0.715    -0.887     0. 
 C(PDBName=C16,ResName=SU8,ResNum=0)  1.396     0.336     0.001 
 H(PDBName=H9,ResName=SU8,ResNum=0)  2.499     0.337     0. 
 C(PDBName=C17,ResName=SU8,ResNum=0)  0.714     1.558     0.001 
 C(PDBName=C18,ResName=SU8,ResNum=0)  1.415     2.816     0.001 
 C(PDBName=C19,ResName=SU8,ResNum=0)  2.883     2.837     0. 
 C(PDBName=C20,ResName=SU8,ResNum=0)  3.588     2.858    -1.21 
 H(PDBName=H10,ResName=SU8,ResNum=0)  3.039     2.842    -2.163 
 C(PDBName=C21,ResName=SU8,ResNum=0)  4.982     2.897    -1.207 
 H(PDBName=H11,ResName=SU8,ResNum=0)  5.53      2.913    -2.16 
 C(PDBName=C22,ResName=SU8,ResNum=0)  5.68      2.915     0. 
 H(PDBName=H12,ResName=SU8,ResNum=0)  6.78      2.942     0. 
 C(PDBName=C23,ResName=SU8,ResNum=0)  4.982     2.896     1.207 
 H(PDBName=H13,ResName=SU8,ResNum=0)  5.531     2.911     2.16 
 C(PDBName=C24,ResName=SU8,ResNum=0)  3.589     2.856     1.21 
 H(PDBName=H14,ResName=SU8,ResNum=0)  3.04      2.838     2.164 
 C(PDBName=C25,ResName=SU8,ResNum=0)  0.71      3.991     0. 
 H(PDBName=H15,ResName=SU8,ResNum=0)  1.234     4.959    -0.002 
 C(PDBName=C26,ResName=SU8,ResNum=0) -0.711     3.991     0.001 
 H(PDBName=H16,ResName=SU8,ResNum=0) -1.235     4.959     0.001 
 C(PDBName=C27,ResName=SU8,ResNum=0) -1.416     2.816     0. 
 C(PDBName=C34,ResName=SU8,ResNum=0) -0.715     1.558     0. 
 C(PDBName=C35,ResName=SU8,ResNum=0) -1.396     0.335     0. 
 H(PDBName=H22,ResName=SU8,ResNum=0) -2.499     0.336    -0.001 
 C(PDBName=C28,ResName=SU8,ResNum=0) -2.883     2.836     0. 
 C(PDBName=C29,ResName=SU8,ResNum=0) -3.589     2.856    -1.21 
 H(PDBName=H17,ResName=SU8,ResNum=0) -3.039     2.841    -2.163 
 C(PDBName=C30,ResName=SU8,ResNum=0) -4.982     2.896    -1.207 
 H(PDBName=H18,ResName=SU8,ResNum=0) -5.53      2.912    -2.16 
 C(PDBName=C31,ResName=SU8,ResNum=0) -5.681     2.917     0. 
 H(PDBName=H19,ResName=SU8,ResNum=0) -6.78      2.947     0. 
 C(PDBName=C32,ResName=SU8,ResNum=0) -4.982     2.899     1.207 
 H(PDBName=H20,ResName=SU8,ResNum=0) -5.531     2.917     2.16 
 C(PDBName=C33,ResName=SU8,ResNum=0) -3.589     2.858     1.21 
 H(PDBName=H21,ResName=SU8,ResNum=0) -3.04      2.844     2.163 
 
 Center=     -0.00003125      0.33212500      0.00004687
 Residue   1 PDB Number     0   SU8 charge    0.00000000 layers R        AvRTP=      0.00000000      0.00000000      0.00000000

 GradGradGradGradGradGradGradGradGradGradGradGradGradGradGradGradGradGrad
 Berny optimization.
 Initialization pass.
                           ----------------------------
                           !    Initial Parameters    !
                           ! (Angstroms and Degrees)  !
 --------------------------                            --------------------------
 ! Name  Definition              Value          Derivative Info.                !
 --------------------------------------------------------------------------------
 ! R1    R(1,2)                  1.701          estimate D2E/DX2                !
 ! R2    R(2,3)                  1.398          estimate D2E/DX2                !
 ! R3    R(2,10)                 1.3976         estimate D2E/DX2                !
 ! R4    R(3,4)                  1.1003         estimate D2E/DX2                !
 ! R5    R(3,5)                  1.3927         estimate D2E/DX2                !
 ! R6    R(5,6)                  1.1008         estimate D2E/DX2                !
 ! R7    R(5,7)                  1.4011         estimate D2E/DX2                !
 ! R8    R(7,8)                  1.4011         estimate D2E/DX2                !
 ! R9    R(7,12)                 1.4682         estimate D2E/DX2                !
 ! R10   R(8,9)                  1.1004         estimate D2E/DX2                !
 ! R11   R(8,10)                 1.3938         estimate D2E/DX2                !
 ! R12   R(10,11)                1.0998         estimate D2E/DX2                !
 ! R13   R(12,13)                1.3701         estimate D2E/DX2                !
 ! R14   R(12,30)                1.4392         estimate D2E/DX2                !
 ! R15   R(13,14)                1.1007         estimate D2E/DX2                !
 ! R16   R(13,15)                1.421          estimate D2E/DX2                !
 ! R17   R(15,16)                1.1007         estimate D2E/DX2                !
 ! R18   R(15,17)                1.3706         estimate D2E/DX2                !
 ! R19   R(17,18)                1.4682         estimate D2E/DX2                !
 ! R20   R(17,29)                1.4392         estimate D2E/DX2                !
 ! R21   R(18,19)                1.4011         estimate D2E/DX2                !
 ! R22   R(18,27)                1.4011         estimate D2E/DX2                !
 ! R23   R(19,20)                1.1008         estimate D2E/DX2                !
 ! R24   R(19,21)                1.3927         estimate D2E/DX2                !
 ! R25   R(21,22)                1.1003         estimate D2E/DX2                !
 ! R26   R(21,23)                1.3981         estimate D2E/DX2                !
 ! R27   R(23,24)                1.7012         estimate D2E/DX2                !
 ! R28   R(23,25)                1.3981         estimate D2E/DX2                !
 ! R29   R(25,26)                1.1003         estimate D2E/DX2                !
 ! R30   R(25,27)                1.3927         estimate D2E/DX2                !
 ! R31   R(27,28)                1.1008         estimate D2E/DX2                !
 ! R32   R(29,30)                1.43           estimate D2E/DX2                !
 ! R33   R(29,52)                1.3989         estimate D2E/DX2                !
 ! R34   R(30,31)                1.3998         estimate D2E/DX2                !
 ! R35   R(31,32)                1.103          estimate D2E/DX2                !
 ! R36   R(31,33)                1.3994         estimate D2E/DX2                !
 ! R37   R(33,34)                1.4401         estimate D2E/DX2                !
 ! R38   R(33,51)                1.429          estimate D2E/DX2                !
 ! R39   R(34,35)                1.4682         estimate D2E/DX2                !
 ! R40   R(34,46)                1.3703         estimate D2E/DX2                !
 ! R41   R(35,36)                1.4006         estimate D2E/DX2                !
 ! R42   R(35,44)                1.401          estimate D2E/DX2                !
 ! R43   R(36,37)                1.0999         estimate D2E/DX2                !
 ! R44   R(36,38)                1.3945         estimate D2E/DX2                !
 ! R45   R(38,39)                1.0994         estimate D2E/DX2                !
 ! R46   R(38,40)                1.3944         estimate D2E/DX2                !
 ! R47   R(40,41)                1.1003         estimate D2E/DX2                !
 ! R48   R(40,42)                1.3944         estimate D2E/DX2                !
 ! R49   R(42,43)                1.0999         estimate D2E/DX2                !
 ! R50   R(42,44)                1.3936         estimate D2E/DX2                !
 ! R51   R(44,45)                1.1008         estimate D2E/DX2                !
 ! R52   R(46,47)                1.1007         estimate D2E/DX2                !
 ! R53   R(46,48)                1.421          estimate D2E/DX2                !
 ! R54   R(48,49)                1.1007         estimate D2E/DX2                !
 ! R55   R(48,50)                1.3703         estimate D2E/DX2                !
 ! R56   R(50,51)                1.4401         estimate D2E/DX2                !
 ! R57   R(50,54)                1.4671         estimate D2E/DX2                !
 ! R58   R(51,52)                1.3998         estimate D2E/DX2                !
 ! R59   R(52,53)                1.103          estimate D2E/DX2                !
 ! R60   R(54,55)                1.401          estimate D2E/DX2                !
 ! R61   R(54,63)                1.4011         estimate D2E/DX2                !
 ! R62   R(55,56)                1.1004         estimate D2E/DX2                !
 ! R63   R(55,57)                1.3936         estimate D2E/DX2                !
 ! R64   R(57,58)                1.0994         estimate D2E/DX2                !
 ! R65   R(57,59)                1.395          estimate D2E/DX2                !
 ! R66   R(59,60)                1.0994         estimate D2E/DX2                !
 ! R67   R(59,61)                1.3949         estimate D2E/DX2                !
 ! R68   R(61,62)                1.1            estimate D2E/DX2                !
 ! R69   R(61,63)                1.3936         estimate D2E/DX2                !
 ! R70   R(63,64)                1.0999         estimate D2E/DX2                !
 ! A1    A(1,2,3)              119.7317         estimate D2E/DX2                !
 ! A2    A(1,2,10)             119.6987         estimate D2E/DX2                !
 ! A3    A(3,2,10)             120.5695         estimate D2E/DX2                !
 ! A4    A(2,3,4)              120.3807         estimate D2E/DX2                !
 ! A5    A(2,3,5)              119.5673         estimate D2E/DX2                !
 ! A6    A(4,3,5)              120.052          estimate D2E/DX2                !
 ! A7    A(3,5,6)              119.7665         estimate D2E/DX2                !
 ! A8    A(3,5,7)              120.4424         estimate D2E/DX2                !
 ! A9    A(6,5,7)              119.7911         estimate D2E/DX2                !
 ! A10   A(5,7,8)              119.4478         estimate D2E/DX2                !
 ! A11   A(5,7,12)             120.2705         estimate D2E/DX2                !
 ! A12   A(8,7,12)             120.2697         estimate D2E/DX2                !
 ! A13   A(7,8,9)              119.8367         estimate D2E/DX2                !
 ! A14   A(7,8,10)             120.4388         estimate D2E/DX2                !
 ! A15   A(9,8,10)             119.7245         estimate D2E/DX2                !
 ! A16   A(2,10,8)             119.5342         estimate D2E/DX2                !
 ! A17   A(2,10,11)            120.4621         estimate D2E/DX2                !
 ! A18   A(8,10,11)            120.0037         estimate D2E/DX2                !
 ! A19   A(7,12,13)            120.051          estimate D2E/DX2                !
 ! A20   A(7,12,30)            119.878          estimate D2E/DX2                !
 ! A21   A(13,12,30)           120.071          estimate D2E/DX2                !
 ! A22   A(12,13,14)           120.7018         estimate D2E/DX2                !
 ! A23   A(12,13,15)           120.8705         estimate D2E/DX2                !
 ! A24   A(14,13,15)           118.4277         estimate D2E/DX2                !
 ! A25   A(13,15,16)           118.4277         estimate D2E/DX2                !
 ! A26   A(13,15,17)           120.9064         estimate D2E/DX2                !
 ! A27   A(16,15,17)           120.6659         estimate D2E/DX2                !
 ! A28   A(15,17,18)           120.0478         estimate D2E/DX2                !
 ! A29   A(15,17,29)           120.0351         estimate D2E/DX2                !
 ! A30   A(18,17,29)           119.9171         estimate D2E/DX2                !
 ! A31   A(17,18,19)           120.2707         estimate D2E/DX2                !
 ! A32   A(17,18,27)           120.2701         estimate D2E/DX2                !
 ! A33   A(19,18,27)           119.4489         estimate D2E/DX2                !
 ! A34   A(18,19,20)           119.7937         estimate D2E/DX2                !
 ! A35   A(18,19,21)           120.4412         estimate D2E/DX2                !
 ! A36   A(20,19,21)           119.7651         estimate D2E/DX2                !
 ! A37   A(19,21,22)           120.0491         estimate D2E/DX2                !
 ! A38   A(19,21,23)           119.5695         estimate D2E/DX2                !
 ! A39   A(22,21,23)           120.3814         estimate D2E/DX2                !
 ! A40   A(21,23,24)           119.734          estimate D2E/DX2                !
 ! A41   A(21,23,25)           120.529          estimate D2E/DX2                !
 ! A42   A(24,23,25)           119.7368         estimate D2E/DX2                !
 ! A43   A(23,25,26)           120.3822         estimate D2E/DX2                !
 ! A44   A(23,25,27)           119.5717         estimate D2E/DX2                !
 ! A45   A(26,25,27)           120.0461         estimate D2E/DX2                !
 ! A46   A(18,27,25)           120.439          estimate D2E/DX2                !
 ! A47   A(18,27,28)           119.7945         estimate D2E/DX2                !
 ! A48   A(25,27,28)           119.7665         estimate D2E/DX2                !
 ! A49   A(17,29,30)           119.0585         estimate D2E/DX2                !
 ! A50   A(17,29,52)           121.8113         estimate D2E/DX2                !
 ! A51   A(30,29,52)           119.1302         estimate D2E/DX2                !
 ! A52   A(12,30,29)           119.0585         estimate D2E/DX2                !
 ! A53   A(12,30,31)           121.8313         estimate D2E/DX2                !
 ! A54   A(29,30,31)           119.1103         estimate D2E/DX2                !
 ! A55   A(30,31,32)           119.1621         estimate D2E/DX2                !
 ! A56   A(30,31,33)           121.7238         estimate D2E/DX2                !
 ! A57   A(32,31,33)           119.114          estimate D2E/DX2                !
 ! A58   A(31,33,34)           121.706          estimate D2E/DX2                !
 ! A59   A(31,33,51)           119.1659         estimate D2E/DX2                !
 ! A60   A(34,33,51)           119.128          estimate D2E/DX2                !
 ! A61   A(33,34,35)           119.9476         estimate D2E/DX2                !
 ! A62   A(33,34,46)           119.9082         estimate D2E/DX2                !
 ! A63   A(35,34,46)           120.1441         estimate D2E/DX2                !
 ! A64   A(34,35,36)           120.2731         estimate D2E/DX2                !
 ! A65   A(34,35,44)           120.2297         estimate D2E/DX2                !
 ! A66   A(36,35,44)           119.4907         estimate D2E/DX2                !
 ! A67   A(35,36,37)           119.8062         estimate D2E/DX2                !
 ! A68   A(35,36,38)           120.1147         estimate D2E/DX2                !
 ! A69   A(37,36,38)           120.0789         estimate D2E/DX2                !
 ! A70   A(36,38,39)           119.7873         estimate D2E/DX2                !
 ! A71   A(36,38,40)           120.1719         estimate D2E/DX2                !
 ! A72   A(39,38,40)           120.0408         estimate D2E/DX2                !
 ! A73   A(38,40,41)           120.0487         estimate D2E/DX2                !
 ! A74   A(38,40,42)           119.9016         estimate D2E/DX2                !
 ! A75   A(41,40,42)           120.0496         estimate D2E/DX2                !
 ! A76   A(40,42,43)           119.9959         estimate D2E/DX2                !
 ! A77   A(40,42,44)           120.173          estimate D2E/DX2                !
 ! A78   A(43,42,44)           119.8311         estimate D2E/DX2                !
 ! A79   A(35,44,42)           120.148          estimate D2E/DX2                !
 ! A80   A(35,44,45)           119.7964         estimate D2E/DX2                !
 ! A81   A(42,44,45)           120.0556         estimate D2E/DX2                !
 ! A82   A(34,46,47)           120.6086         estimate D2E/DX2                !
 ! A83   A(34,46,48)           120.9637         estimate D2E/DX2                !
 ! A84   A(47,46,48)           118.4277         estimate D2E/DX2                !
 ! A85   A(46,48,49)           118.4277         estimate D2E/DX2                !
 ! A86   A(46,48,50)           120.9637         estimate D2E/DX2                !
 ! A87   A(49,48,50)           120.6086         estimate D2E/DX2                !
 ! A88   A(48,50,51)           119.9082         estimate D2E/DX2                !
 ! A89   A(48,50,54)           120.1827         estimate D2E/DX2                !
 ! A90   A(51,50,54)           119.9091         estimate D2E/DX2                !
 ! A91   A(33,51,50)           119.128          estimate D2E/DX2                !
 ! A92   A(33,51,52)           119.1103         estimate D2E/DX2                !
 ! A93   A(50,51,52)           121.7617         estimate D2E/DX2                !
 ! A94   A(29,52,51)           121.7596         estimate D2E/DX2                !
 ! A95   A(29,52,53)           119.1821         estimate D2E/DX2                !
 ! A96   A(51,52,53)           119.0583         estimate D2E/DX2                !
 ! A97   A(50,54,55)           120.2687         estimate D2E/DX2                !
 ! A98   A(50,54,63)           120.2693         estimate D2E/DX2                !
 ! A99   A(55,54,63)           119.4533         estimate D2E/DX2                !
 ! A100  A(54,55,56)           119.7281         estimate D2E/DX2                !
 ! A101  A(54,55,57)           120.149          estimate D2E/DX2                !
 ! A102  A(56,55,57)           120.1228         estimate D2E/DX2                !
 ! A103  A(55,57,58)           119.7872         estimate D2E/DX2                !
 ! A104  A(55,57,59)           120.2106         estimate D2E/DX2                !
 ! A105  A(58,57,59)           120.0021         estimate D2E/DX2                !
 ! A106  A(57,59,60)           120.0872         estimate D2E/DX2                !
 ! A107  A(57,59,61)           119.8286         estimate D2E/DX2                !
 ! A108  A(60,59,61)           120.0843         estimate D2E/DX2                !
 ! A109  A(59,61,62)           119.9576         estimate D2E/DX2                !
 ! A110  A(59,61,63)           120.2074         estimate D2E/DX2                !
 ! A111  A(62,61,63)           119.835          estimate D2E/DX2                !
 ! A112  A(54,63,61)           120.151          estimate D2E/DX2                !
 ! A113  A(54,63,64)           119.7726         estimate D2E/DX2                !
 ! A114  A(61,63,64)           120.0763         estimate D2E/DX2                !
 ! D1    D(1,2,3,4)             -0.1587         estimate D2E/DX2                !
 ! D2    D(1,2,3,5)            179.8432         estimate D2E/DX2                !
 ! D3    D(10,2,3,4)           179.9397         estimate D2E/DX2                !
 ! D4    D(10,2,3,5)            -0.0584         estimate D2E/DX2                !
 ! D5    D(1,2,10,8)          -179.8893         estimate D2E/DX2                !
 ! D6    D(1,2,10,11)            0.181          estimate D2E/DX2                !
 ! D7    D(3,2,10,8)             0.0124         estimate D2E/DX2                !
 ! D8    D(3,2,10,11)         -179.9173         estimate D2E/DX2                !
 ! D9    D(2,3,5,6)           -179.9742         estimate D2E/DX2                !
 ! D10   D(2,3,5,7)              0.0842         estimate D2E/DX2                !
 ! D11   D(4,3,5,6)              0.0277         estimate D2E/DX2                !
 ! D12   D(4,3,5,7)           -179.9139         estimate D2E/DX2                !
 ! D13   D(3,5,7,8)             -0.0639         estimate D2E/DX2                !
 ! D14   D(3,5,7,12)          -178.8054         estimate D2E/DX2                !
 ! D15   D(6,5,7,8)            179.9945         estimate D2E/DX2                !
 ! D16   D(6,5,7,12)             1.253          estimate D2E/DX2                !
 ! D17   D(5,7,8,9)           -179.9746         estimate D2E/DX2                !
 ! D18   D(5,7,8,10)             0.0173         estimate D2E/DX2                !
 ! D19   D(12,7,8,9)            -1.2331         estimate D2E/DX2                !
 ! D20   D(12,7,8,10)          178.7588         estimate D2E/DX2                !
 ! D21   D(5,7,12,13)           89.2945         estimate D2E/DX2                !
 ! D22   D(5,7,12,30)          -90.7055         estimate D2E/DX2                !
 ! D23   D(8,7,12,13)          -89.4366         estimate D2E/DX2                !
 ! D24   D(8,7,12,30)           90.5634         estimate D2E/DX2                !
 ! D25   D(7,8,10,2)             0.0082         estimate D2E/DX2                !
 ! D26   D(7,8,10,11)          179.9382         estimate D2E/DX2                !
 ! D27   D(9,8,10,2)          -179.9999         estimate D2E/DX2                !
 ! D28   D(9,8,10,11)           -0.0699         estimate D2E/DX2                !
 ! D29   D(7,12,13,14)           0.0            estimate D2E/DX2                !
 ! D30   D(7,12,13,15)         180.0            estimate D2E/DX2                !
 ! D31   D(30,12,13,14)        180.0            estimate D2E/DX2                !
 ! D32   D(30,12,13,15)          0.0            estimate D2E/DX2                !
 ! D33   D(7,12,30,29)         180.0            estimate D2E/DX2                !
 ! D34   D(7,12,30,31)          -0.0482         estimate D2E/DX2                !
 ! D35   D(13,12,30,29)          0.0            estimate D2E/DX2                !
 ! D36   D(13,12,30,31)        179.9518         estimate D2E/DX2                !
 ! D37   D(12,13,15,16)        180.0            estimate D2E/DX2                !
 ! D38   D(12,13,15,17)          0.0            estimate D2E/DX2                !
 ! D39   D(14,13,15,16)          0.0            estimate D2E/DX2                !
 ! D40   D(14,13,15,17)        180.0            estimate D2E/DX2                !
 ! D41   D(13,15,17,18)        180.0            estimate D2E/DX2                !
 ! D42   D(13,15,17,29)          0.0            estimate D2E/DX2                !
 ! D43   D(16,15,17,18)          0.0            estimate D2E/DX2                !
 ! D44   D(16,15,17,29)        180.0            estimate D2E/DX2                !
 ! D45   D(15,17,18,19)         89.3647         estimate D2E/DX2                !
 ! D46   D(15,17,18,27)        -89.4593         estimate D2E/DX2                !
 ! D47   D(29,17,18,19)        -90.6353         estimate D2E/DX2                !
 ! D48   D(29,17,18,27)         90.5407         estimate D2E/DX2                !
 ! D49   D(15,17,29,30)          0.0            estimate D2E/DX2                !
 ! D50   D(15,17,29,52)        180.0            estimate D2E/DX2                !
 ! D51   D(18,17,29,30)        180.0            estimate D2E/DX2                !
 ! D52   D(18,17,29,52)          0.0            estimate D2E/DX2                !
 ! D53   D(17,18,19,20)          1.1006         estimate D2E/DX2                !
 ! D54   D(17,18,19,21)       -178.8981         estimate D2E/DX2                !
 ! D55   D(27,18,19,20)        179.9343         estimate D2E/DX2                !
 ! D56   D(27,18,19,21)         -0.0645         estimate D2E/DX2                !
 ! D57   D(17,18,27,25)        178.8978         estimate D2E/DX2                !
 ! D58   D(17,18,27,28)         -1.066          estimate D2E/DX2                !
 ! D59   D(19,18,27,25)          0.0642         estimate D2E/DX2                !
 ! D60   D(19,18,27,28)       -179.8997         estimate D2E/DX2                !
 ! D61   D(18,19,21,22)       -179.8407         estimate D2E/DX2                !
 ! D62   D(18,19,21,23)          0.1785         estimate D2E/DX2                !
 ! D63   D(20,19,21,22)          0.1606         estimate D2E/DX2                !
 ! D64   D(20,19,21,23)       -179.8202         estimate D2E/DX2                !
 ! D65   D(19,21,23,24)        179.5636         estimate D2E/DX2                !
 ! D66   D(19,21,23,25)         -0.294          estimate D2E/DX2                !
 ! D67   D(22,21,23,24)         -0.4171         estimate D2E/DX2                !
 ! D68   D(22,21,23,25)        179.7252         estimate D2E/DX2                !
 ! D69   D(21,23,25,26)       -179.6994         estimate D2E/DX2                !
 ! D70   D(21,23,25,27)          0.2937         estimate D2E/DX2                !
 ! D71   D(24,23,25,26)          0.443          estimate D2E/DX2                !
 ! D72   D(24,23,25,27)       -179.5639         estimate D2E/DX2                !
 ! D73   D(23,25,27,18)         -0.1779         estimate D2E/DX2                !
 ! D74   D(23,25,27,28)        179.786          estimate D2E/DX2                !
 ! D75   D(26,25,27,18)        179.8153         estimate D2E/DX2                !
 ! D76   D(26,25,27,28)         -0.2209         estimate D2E/DX2                !
 ! D77   D(17,29,30,12)          0.0            estimate D2E/DX2                !
 ! D78   D(17,29,30,31)       -179.9532         estimate D2E/DX2                !
 ! D79   D(52,29,30,12)        180.0            estimate D2E/DX2                !
 ! D80   D(52,29,30,31)          0.0468         estimate D2E/DX2                !
 ! D81   D(17,29,52,51)        180.0            estimate D2E/DX2                !
 ! D82   D(17,29,52,53)         -0.0595         estimate D2E/DX2                !
 ! D83   D(30,29,52,51)          0.0            estimate D2E/DX2                !
 ! D84   D(30,29,52,53)        179.9405         estimate D2E/DX2                !
 ! D85   D(12,30,31,32)          0.1077         estimate D2E/DX2                !
 ! D86   D(12,30,31,33)       -179.9999         estimate D2E/DX2                !
 ! D87   D(29,30,31,32)       -179.9405         estimate D2E/DX2                !
 ! D88   D(29,30,31,33)         -0.0481         estimate D2E/DX2                !
 ! D89   D(30,31,33,34)       -179.9519         estimate D2E/DX2                !
 ! D90   D(30,31,33,51)          0.0022         estimate D2E/DX2                !
 ! D91   D(32,31,33,34)         -0.0595         estimate D2E/DX2                !
 ! D92   D(32,31,33,51)        179.8946         estimate D2E/DX2                !
 ! D93   D(31,33,34,35)          0.045          estimate D2E/DX2                !
 ! D94   D(31,33,34,46)        179.9518         estimate D2E/DX2                !
 ! D95   D(51,33,34,35)       -179.9091         estimate D2E/DX2                !
 ! D96   D(51,33,34,46)         -0.0023         estimate D2E/DX2                !
 ! D97   D(31,33,51,50)       -180.0            estimate D2E/DX2                !
 ! D98   D(31,33,51,52)          0.0447         estimate D2E/DX2                !
 ! D99   D(34,33,51,50)         -0.0447         estimate D2E/DX2                !
 ! D100  D(34,33,51,52)        180.0            estimate D2E/DX2                !
 ! D101  D(33,34,35,36)         90.4945         estimate D2E/DX2                !
 ! D102  D(33,34,35,44)        -90.4437         estimate D2E/DX2                !
 ! D103  D(46,34,35,36)        -89.412          estimate D2E/DX2                !
 ! D104  D(46,34,35,44)         89.6498         estimate D2E/DX2                !
 ! D105  D(33,34,46,47)       -179.8797         estimate D2E/DX2                !
 ! D106  D(33,34,46,48)          0.0962         estimate D2E/DX2                !
 ! D107  D(35,34,46,47)          0.0268         estimate D2E/DX2                !
 ! D108  D(35,34,46,48)       -179.9973         estimate D2E/DX2                !
 ! D109  D(34,35,36,37)         -1.0054         estimate D2E/DX2                !
 ! D110  D(34,35,36,38)        179.0932         estimate D2E/DX2                !
 ! D111  D(44,35,36,37)        179.9259         estimate D2E/DX2                !
 ! D112  D(44,35,36,38)          0.0245         estimate D2E/DX2                !
 ! D113  D(34,35,44,42)       -179.045          estimate D2E/DX2                !
 ! D114  D(34,35,44,45)          1.029          estimate D2E/DX2                !
 ! D115  D(36,35,44,42)          0.0241         estimate D2E/DX2                !
 ! D116  D(36,35,44,45)       -179.9019         estimate D2E/DX2                !
 ! D117  D(35,36,38,39)        179.9798         estimate D2E/DX2                !
 ! D118  D(35,36,38,40)          0.0123         estimate D2E/DX2                !
 ! D119  D(37,36,38,39)          0.0787         estimate D2E/DX2                !
 ! D120  D(37,36,38,40)       -179.8889         estimate D2E/DX2                !
 ! D121  D(36,38,40,41)        179.7728         estimate D2E/DX2                !
 ! D122  D(36,38,40,42)         -0.0976         estimate D2E/DX2                !
 ! D123  D(39,38,40,41)         -0.1946         estimate D2E/DX2                !
 ! D124  D(39,38,40,42)        179.935          estimate D2E/DX2                !
 ! D125  D(38,40,42,43)       -179.9493         estimate D2E/DX2                !
 ! D126  D(38,40,42,44)          0.1463         estimate D2E/DX2                !
 ! D127  D(41,40,42,43)          0.1803         estimate D2E/DX2                !
 ! D128  D(41,40,42,44)       -179.7241         estimate D2E/DX2                !
 ! D129  D(40,42,44,35)         -0.1097         estimate D2E/DX2                !
 ! D130  D(40,42,44,45)        179.8161         estimate D2E/DX2                !
 ! D131  D(43,42,44,35)        179.9857         estimate D2E/DX2                !
 ! D132  D(43,42,44,45)         -0.0885         estimate D2E/DX2                !
 ! D133  D(34,46,48,49)        179.9489         estimate D2E/DX2                !
 ! D134  D(34,46,48,50)         -0.1459         estimate D2E/DX2                !
 ! D135  D(47,46,48,49)         -0.0747         estimate D2E/DX2                !
 ! D136  D(47,46,48,50)        179.8305         estimate D2E/DX2                !
 ! D137  D(46,48,50,51)          0.0962         estimate D2E/DX2                !
 ! D138  D(46,48,50,54)       -179.9522         estimate D2E/DX2                !
 ! D139  D(49,48,50,51)        179.9993         estimate D2E/DX2                !
 ! D140  D(49,48,50,54)         -0.0491         estimate D2E/DX2                !
 ! D141  D(48,50,51,33)         -0.0023         estimate D2E/DX2                !
 ! D142  D(48,50,51,52)        179.9518         estimate D2E/DX2                !
 ! D143  D(54,50,51,33)       -179.9541         estimate D2E/DX2                !
 ! D144  D(54,50,51,52)          0.0            estimate D2E/DX2                !
 ! D145  D(48,50,54,55)         89.5572         estimate D2E/DX2                !
 ! D146  D(48,50,54,63)        -89.3657         estimate D2E/DX2                !
 ! D147  D(51,50,54,55)        -90.4912         estimate D2E/DX2                !
 ! D148  D(51,50,54,63)         90.5859         estimate D2E/DX2                !
 ! D149  D(33,51,52,29)         -0.0459         estimate D2E/DX2                !
 ! D150  D(33,51,52,53)       -179.9865         estimate D2E/DX2                !
 ! D151  D(50,51,52,29)        180.0            estimate D2E/DX2                !
 ! D152  D(50,51,52,53)          0.0594         estimate D2E/DX2                !
 ! D153  D(50,54,55,56)          0.9396         estimate D2E/DX2                !
 ! D154  D(50,54,55,57)       -179.0            estimate D2E/DX2                !
 ! D155  D(63,54,55,56)        179.8713         estimate D2E/DX2                !
 ! D156  D(63,54,55,57)         -0.0683         estimate D2E/DX2                !
 ! D157  D(50,54,63,61)        178.9522         estimate D2E/DX2                !
 ! D158  D(50,54,63,64)         -0.9758         estimate D2E/DX2                !
 ! D159  D(55,54,63,61)          0.0205         estimate D2E/DX2                !
 ! D160  D(55,54,63,64)       -179.9075         estimate D2E/DX2                !
 ! D161  D(54,55,57,58)        179.9712         estimate D2E/DX2                !
 ! D162  D(54,55,57,59)          0.0312         estimate D2E/DX2                !
 ! D163  D(56,55,57,58)          0.0319         estimate D2E/DX2                !
 ! D164  D(56,55,57,59)       -179.9082         estimate D2E/DX2                !
 ! D165  D(55,57,59,60)       -179.9063         estimate D2E/DX2                !
 ! D166  D(55,57,59,61)          0.054          estimate D2E/DX2                !
 ! D167  D(58,57,59,60)          0.1538         estimate D2E/DX2                !
 ! D168  D(58,57,59,61)       -179.8859         estimate D2E/DX2                !
 ! D169  D(57,59,61,62)        179.9098         estimate D2E/DX2                !
 ! D170  D(57,59,61,63)         -0.1019         estimate D2E/DX2                !
 ! D171  D(60,59,61,62)         -0.1298         estimate D2E/DX2                !
 ! D172  D(60,59,61,63)        179.8584         estimate D2E/DX2                !
 ! D173  D(59,61,63,54)          0.0646         estimate D2E/DX2                !
 ! D174  D(59,61,63,64)        179.9924         estimate D2E/DX2                !
 ! D175  D(62,61,63,54)       -179.9472         estimate D2E/DX2                !
 ! D176  D(62,61,63,64)         -0.0194         estimate D2E/DX2                !
 --------------------------------------------------------------------------------
 Trust Radius=3.00D-01 FncErr=1.00D-07 GrdErr=1.00D-06 EigMax=2.50D+02 EigMin=1.00D-04
 Number of steps in this run=    370 maximum allowed number of steps=    384.
 GradGradGradGradGradGradGradGradGradGradGradGradGradGradGradGradGradGrad

 Stoichiometry    C38H24Cl2
 Framework group  C1[X(C38H24Cl2)]
 Deg. of freedom   186
 Full point group                 C1      NOp   1
 Largest Abelian subgroup         C1      NOp   1
 Largest concise Abelian subgroup C1      NOp   1
                         Standard orientation:                         
 ---------------------------------------------------------------------
 Center     Atomic      Atomic             Coordinates (Angstroms)
 Number     Number       Type             X           Y           Z
 ---------------------------------------------------------------------
      1         17           0       -7.372657   -2.354431    0.000080
      2          6           0       -5.672667   -2.295140    0.000080
      3          6           0       -4.979671   -2.273022    1.214080
      4          1           0       -5.527668   -2.291116    2.168080
      5          6           0       -3.587679   -2.227784    1.210080
      6          1           0       -3.038682   -2.210690    2.164080
      7          6           0       -2.881683   -2.202664    0.000080
      8          6           0       -3.587679   -2.224784   -1.209920
      9          1           0       -3.039683   -2.205691   -2.163920
     10          6           0       -4.980672   -2.271022   -1.213920
     11          1           0       -5.527669   -2.287116   -2.167920
     12          6           0       -1.413687   -2.181413    0.000080
     13          6           0       -0.710486   -3.357293    0.000080
     14          1           0       -1.234321   -4.325382    0.000080
     15          6           0        0.710514   -3.357050    0.000080
     16          1           0        1.234679   -4.324960    0.000080
     17          6           0        1.414313   -2.180930    0.000080
     18          6           0        2.882317   -2.202679    0.000080
     19          6           0        3.588321   -2.226558   -1.209920
     20          1           0        3.039318   -2.210652   -2.163920
     21          6           0        4.980328   -2.270321   -1.213920
     22          1           0        5.528331   -2.286227   -2.167920
     23          6           0        5.673333   -2.294202    0.000080
     24         17           0        7.373344   -2.358912    0.000080
     25          6           0        4.980328   -2.268321    1.214080
     26          1           0        5.528331   -2.282227    2.168080
     27          6           0        3.588321   -2.224558    1.210080
     28          1           0        3.039318   -2.207652    2.164080
     29          6           0        0.715098   -0.923049    0.000080
     30          6           0       -0.714902   -0.923293    0.000080
     31          6           0       -1.396111    0.299590   -0.000920
     32          1           0       -2.499111    0.300402    0.000080
     33          6           0       -0.714319    1.521707   -0.000920
     34          6           0       -1.415534    2.779587   -0.000920
     35          6           0       -2.883538    2.800336    0.000080
     36          6           0       -3.588541    2.821216    1.210080
     37          1           0       -3.039539    2.805309    2.163080
     38          6           0       -4.982548    2.859977    1.207080
     39          1           0       -5.530551    2.875884    2.160080
     40          6           0       -5.680551    2.877858    0.000080
     41          1           0       -6.780556    2.904670    0.000080
     42          6           0       -4.982548    2.858977   -1.206920
     43          1           0       -5.531550    2.873884   -2.159920
     44          6           0       -3.589541    2.819215   -1.209920
     45          1           0       -3.040538    2.801309   -2.163920
     46          6           0       -0.710735    3.954707    0.000080
     47          1           0       -1.234900    4.922618    0.002080
     48          6           0        0.710265    3.954950   -0.000920
     49          1           0        1.234100    4.923040   -0.000920
     50          6           0        1.415466    2.780071    0.000080
     51          6           0        0.714681    1.521951    0.000080
     52          6           0        1.395889    0.299067    0.000080
     53          1           0        2.498889    0.300256    0.001080
     54          6           0        2.882462    2.800321    0.000080
     55          6           0        3.588459    2.820442    1.210080
     56          1           0        3.038461    2.805348    2.163080
     57          6           0        4.981452    2.860680    1.207080
     58          1           0        5.529449    2.876773    2.160080
     59          6           0        5.680448    2.881799    0.000080
     60          1           0        6.779443    2.911987    0.000080
     61          6           0        4.981451    2.863680   -1.206920
     62          1           0        5.530448    2.881774   -2.159920
     63          6           0        3.588458    2.822442   -1.209920
     64          1           0        3.039461    2.808348   -2.162920
 ---------------------------------------------------------------------
 Rotational constants (GHZ):           0.1306525           0.0488465           0.0374329
 Standard basis: 6-311+G(d,p) (5D, 7F)
 There are  1080 symmetry adapted cartesian basis functions of A   symmetry.
 There are  1040 symmetry adapted basis functions of A   symmetry.
  1040 basis functions,  1666 primitive gaussians,  1080 cartesian basis functions
   143 alpha electrons      143 beta electrons
       nuclear repulsion energy      4377.8519362135 Hartrees.
 NAtoms=   64 NActive=   64 NUniq=   64 SFac= 1.00D+00 NAtFMM=   60 NAOKFM=T Big=T
 Integral buffers will be    131072 words long.
 Raffenetti 2 integral format.
 Two-electron integral symmetry is turned on.
 One-electron integrals computed using PRISM.
 NBasis=  1040 RedAO= T EigKep=  1.47D-06  NBF=  1040
 NBsUse=  1021 1.00D-06 EigRej=  9.86D-07 NBFU=  1021
 ExpMin= 4.38D-02 ExpMax= 1.06D+05 ExpMxC= 3.62D+03 IAcc=3 IRadAn=         5 AccDes= 0.00D+00
 Harris functional with IExCor=  402 and IRadAn=       5 diagonalized for initial guess.
 HarFok:  IExCor=  402 AccDes= 0.00D+00 IRadAn=         5 IDoV= 1 UseB2=F ITyADJ=14
 ICtDFT=  3500011 ScaDFX=  1.000000  1.000000  1.000000  1.000000
 FoFCou: FMM=F IPFlag=           0 FMFlag=      100000 FMFlg1=        2001
         NFxFlg=           0 DoJE=T BraDBF=F KetDBF=T FulRan=T
         wScrn=  0.000000 ICntrl=       500 IOpCl=  0 I1Cent=   200000004 NGrid=           0
         NMat0=    1 NMatS0=      1 NMatT0=    0 NMatD0=    1 NMtDS0=    0 NMtDT0=    0
 Petite list used in FoFCou.
 Requested convergence on RMS density matrix=1.00D-08 within 128 cycles.
 Requested convergence on MAX density matrix=1.00D-06.
 Requested convergence on             energy=1.00D-06.
 No special actions if energy rises.
 SCF Done:  E(RB3LYP) =  -2383.32399704     A.U. after   16 cycles
            NFock= 16  Conv=0.41D-08     -V/T= 2.0038

 **********************************************************************

            Population analysis using the SCF Density.

 **********************************************************************

 Orbital symmetries:
       Occupied  (A) (A) (A) (A) (A) (A) (A) (A) (A) (A) (A) (A)
                 (A) (A) (A) (A) (A) (A) (A) (A) (A) (A) (A) (A)
                 (A) (A) (A) (A) (A) (A) (A) (A) (A) (A) (A) (A)
                 (A) (A) (A) (A) (A) (A) (A) (A) (A) (A) (A) (A)
                 (A) (A) (A) (A) (A) (A) (A) (A) (A) (A) (A) (A)
                 (A) (A) (A) (A) (A) (A) (A) (A) (A) (A) (A) (A)
                 (A) (A) (A) (A) (A) (A) (A) (A) (A) (A) (A) (A)
                 (A) (A) (A) (A) (A) (A) (A) (A) (A) (A) (A) (A)
                 (A) (A) (A) (A) (A) (A) (A) (A) (A) (A) (A) (A)
                 (A) (A) (A) (A) (A) (A) (A) (A) (A) (A) (A) (A)
                 (A) (A) (A) (A) (A) (A) (A) (A) (A) (A) (A) (A)
                 (A) (A) (A) (A) (A) (A) (A) (A) (A) (A) (A)
       Virtual   (A) (A) (A) (A) (A) (A) (A) (A) (A) (A) (A) (A)
                 (A) (A) (A) (A) (A) (A) (A) (A) (A) (A) (A) (A)
                 (A) (A) (A) (A) (A) (A) (A) (A) (A) (A) (A) (A)
                 (A) (A) (A) (A) (A) (A) (A) (A) (A) (A) (A) (A)
                 (A) (A) (A) (A) (A) (A) (A) (A) (A) (A) (A) (A)
                 (A) (A) (A) (A) (A) (A) (A) (A) (A) (A) (A) (A)
                 (A) (A) (A) (A) (A) (A) (A) (A) (A) (A) (A) (A)
                 (A) (A) (A) (A) (A) (A) (A) (A) (A) (A) (A) (A)
                 (A) (A) (A) (A) (A) (A) (A) (A) (A) (A) (A) (A)
                 (A) (A) (A) (A) (A) (A) (A) (A) (A) (A) (A) (A)
                 (A) (A) (A) (A) (A) (A) (A) (A) (A) (A) (A) (A)
                 (A) (A) (A) (A) (A) (A) (A) (A) (A) (A) (A) (A)
                 (A) (A) (A) (A) (A) (A) (A) (A) (A) (A) (A) (A)
                 (A) (A) (A) (A) (A) (A) (A) (A) (A) (A) (A) (A)
                 (A) (A) (A) (A) (A) (A) (A) (A) (A) (A) (A) (A)
                 (A) (A) (A) (A) (A) (A) (A) (A) (A) (A) (A) (A)
                 (A) (A) (A) (A) (A) (A) (A) (A) (A) (A) (A) (A)
                 (A) (A) (A) (A) (A) (A) (A) (A) (A) (A) (A) (A)
                 (A) (A) (A) (A) (A) (A) (A) (A) (A) (A) (A) (A)
                 (A) (A) (A) (A) (A) (A) (A) (A) (A) (A) (A) (A)
                 (A) (A) (A) (A) (A) (A) (A) (A) (A) (A) (A) (A)
                 (A) (A) (A) (A) (A) (A) (A) (A) (A) (A) (A) (A)
                 (A) (A) (A) (A) (A) (A) (A) (A) (A) (A) (A) (A)
                 (A) (A) (A) (A) (A) (A) (A) (A) (A) (A) (A) (A)
                 (A) (A) (A) (A) (A) (A) (A) (A) (A) (A) (A) (A)
                 (A) (A) (A) (A) (A) (A) (A) (A) (A) (A) (A) (A)
                 (A) (A) (A) (A) (A) (A) (A) (A) (A) (A) (A) (A)
                 (A) (A) (A) (A) (A) (A) (A) (A) (A) (A) (A) (A)
                 (A) (A) (A) (A) (A) (A) (A) (A) (A) (A) (A) (A)
                 (A) (A) (A) (A) (A) (A) (A) (A) (A) (A) (A) (A)
                 (A) (A) (A) (A) (A) (A) (A) (A) (A) (A) (A) (A)
                 (A) (A) (A) (A) (A) (A) (A) (A) (A) (A) (A) (A)
                 (A) (A) (A) (A) (A) (A) (A) (A) (A) (A) (A) (A)
                 (A) (A) (A) (A) (A) (A) (A) (A) (A) (A) (A) (A)
                 (A) (A) (A) (A) (A) (A) (A) (A) (A) (A) (A) (A)
                 (A) (A) (A) (A) (A) (A) (A) (A) (A) (A) (A) (A)
                 (A) (A) (A) (A) (A) (A) (A) (A) (A) (A) (A) (A)
                 (A) (A) (A) (A) (A) (A) (A) (A) (A) (A) (A) (A)
                 (A) (A) (A) (A) (A) (A) (A) (A) (A) (A) (A) (A)
                 (A) (A) (A) (A) (A) (A) (A) (A) (A) (A) (A) (A)
                 (A) (A) (A) (A) (A) (A) (A) (A) (A) (A) (A) (A)
                 (A) (A) (A) (A) (A) (A) (A) (A) (A) (A) (A) (A)
                 (A) (A) (A) (A) (A) (A) (A) (A) (A) (A) (A) (A)
                 (A) (A) (A) (A) (A) (A) (A) (A) (A) (A) (A) (A)
                 (A) (A) (A) (A) (A) (A) (A) (A) (A) (A) (A) (A)
                 (A) (A) (A) (A) (A) (A) (A) (A) (A) (A) (A) (A)
                 (A) (A) (A) (A) (A) (A) (A) (A) (A) (A) (A) (A)
                 (A) (A) (A) (A) (A) (A) (A) (A) (A) (A) (A) (A)
                 (A) (A) (A) (A) (A) (A) (A) (A) (A) (A) (A) (A)
                 (A) (A) (A) (A) (A) (A) (A) (A) (A) (A) (A) (A)
                 (A) (A) (A) (A) (A) (A) (A) (A) (A) (A) (A) (A)
                 (A) (A) (A) (A) (A) (A) (A) (A) (A) (A) (A) (A)
                 (A) (A) (A) (A) (A) (A) (A) (A) (A) (A) (A) (A)
                 (A) (A) (A) (A) (A) (A) (A) (A) (A) (A) (A) (A)
                 (A) (A) (A) (A) (A) (A) (A) (A) (A) (A) (A) (A)
                 (A) (A) (A) (A) (A) (A) (A) (A) (A) (A) (A) (A)
                 (A) (A) (A) (A) (A) (A) (A) (A) (A) (A) (A) (A)
                 (A) (A) (A) (A) (A) (A) (A) (A) (A) (A) (A) (A)
                 (A) (A) (A) (A) (A) (A) (A) (A) (A) (A) (A) (A)
                 (A) (A) (A) (A) (A) (A) (A) (A) (A) (A) (A) (A)
                 (A) (A) (A) (A) (A) (A) (A) (A) (A) (A) (A) (A)
                 (A) (A) (A) (A) (A) (A) (A) (A) (A) (A) (A) (A)
                 (A) (A) (A) (A) (A) (A) (A) (A) (A) (A) (A) (A)
                 (A) (A) (A) (A) (A) (A) (A) (A) (A) (A) (A) (A)
                 (A) (A) (A) (A) (A) (A) (A) (A) (A) (A) (A) (A)
                 (A) (A) (A) (A) (A) (A) (A) (A) (A) (A) (A) (A)
                 (A) (A) (A) (A) (A) (A) (A) (A) (A) (A) (A) (A)
                 (A) (A) (A) (A) (A) (A) (A) (A) (A) (A) (A) (A)
                 (A) (A) (A) (A) (A) (A) (A) (A) (A) (A) (A) (A)
                 (A) (A) (A) (A) (A) (A) (A) (A) (A) (A) (A) (A)
                 (A) (A) (A) (A) (A) (A) (A) (A) (A) (A) (A) (A)
                 (A) (A) (A) (A) (A) (A) (A) (A) (A) (A) (A) (A)
                 (A) (A) (A) (A) (A) (A) (A) (A) (A) (A) (A) (A)
                 (A) (A)
 The electronic state is 1-A.
 Alpha  occ. eigenvalues -- -101.55731-101.55726 -10.24112 -10.24107 -10.19482
 Alpha  occ. eigenvalues --  -10.19481 -10.19392 -10.19391 -10.19391 -10.19390
 Alpha  occ. eigenvalues --  -10.19386 -10.19345 -10.19278 -10.19269 -10.19266
 Alpha  occ. eigenvalues --  -10.19235 -10.19203 -10.19199 -10.19198 -10.19195
 Alpha  occ. eigenvalues --  -10.18970 -10.18967 -10.18863 -10.18859 -10.18506
 Alpha  occ. eigenvalues --  -10.18461 -10.18247 -10.18234 -10.18233 -10.18226
 Alpha  occ. eigenvalues --  -10.18225 -10.18202 -10.18194 -10.18188 -10.18168
 Alpha  occ. eigenvalues --  -10.18164 -10.18164 -10.18160 -10.18093 -10.18090
 Alpha  occ. eigenvalues --   -9.47316  -9.47312  -7.23751  -7.23747  -7.22800
 Alpha  occ. eigenvalues --   -7.22796  -7.22757  -7.22753  -0.90940  -0.90770
 Alpha  occ. eigenvalues --   -0.90035  -0.88147  -0.86998  -0.85987  -0.85771
 Alpha  occ. eigenvalues --   -0.84341  -0.81560  -0.80901  -0.79599  -0.76549
 Alpha  occ. eigenvalues --   -0.76542  -0.75853  -0.75272  -0.75268  -0.75136
 Alpha  occ. eigenvalues --   -0.74736  -0.74722  -0.71519  -0.70105  -0.65777
 Alpha  occ. eigenvalues --   -0.63629  -0.63114  -0.62843  -0.62800  -0.62785
 Alpha  occ. eigenvalues --   -0.61123  -0.61105  -0.60296  -0.60130  -0.57836
 Alpha  occ. eigenvalues --   -0.57167  -0.55118  -0.53750  -0.53375  -0.52711
 Alpha  occ. eigenvalues --   -0.52062  -0.49843  -0.49645  -0.48678  -0.48533
 Alpha  occ. eigenvalues --   -0.47783  -0.47588  -0.47171  -0.46820  -0.46483
 Alpha  occ. eigenvalues --   -0.46258  -0.45596  -0.45452  -0.44656  -0.44156
 Alpha  occ. eigenvalues --   -0.43902  -0.43875  -0.43496  -0.42740  -0.42707
 Alpha  occ. eigenvalues --   -0.42460  -0.42112  -0.41323  -0.40742  -0.40609
 Alpha  occ. eigenvalues --   -0.40441  -0.39852  -0.39292  -0.37853  -0.37754
 Alpha  occ. eigenvalues --   -0.37636  -0.37280  -0.37228  -0.37041  -0.36286
 Alpha  occ. eigenvalues --   -0.35571  -0.35402  -0.35099  -0.34937  -0.34403
 Alpha  occ. eigenvalues --   -0.33993  -0.33645  -0.32511  -0.31985  -0.31978
 Alpha  occ. eigenvalues --   -0.31558  -0.30239  -0.27353  -0.27338  -0.26362
 Alpha  occ. eigenvalues --   -0.26270  -0.26000  -0.25765  -0.25656  -0.25359
 Alpha  occ. eigenvalues --   -0.24929  -0.24846  -0.20535
 Alpha virt. eigenvalues --   -0.07836  -0.04204  -0.03146  -0.03001  -0.02884
 Alpha virt. eigenvalues --   -0.02705  -0.02071  -0.01950  -0.01878  -0.01326
 Alpha virt. eigenvalues --   -0.00858  -0.00809  -0.00160   0.00527   0.01088
 Alpha virt. eigenvalues --    0.01128   0.01144   0.01561   0.01597   0.01965
 Alpha virt. eigenvalues --    0.02246   0.02314   0.02652   0.02774   0.03300
 Alpha virt. eigenvalues --    0.03465   0.03742   0.03795   0.04051   0.04327
 Alpha virt. eigenvalues --    0.04513   0.04847   0.05285   0.05350   0.05384
 Alpha virt. eigenvalues --    0.05411   0.05703   0.05893   0.06567   0.06905
 Alpha virt. eigenvalues --    0.07100   0.07218   0.07634   0.07691   0.07957
 Alpha virt. eigenvalues --    0.08163   0.08585   0.08858   0.09292   0.09432
 Alpha virt. eigenvalues --    0.09900   0.10011   0.10269   0.10365   0.10372
 Alpha virt. eigenvalues --    0.10651   0.10924   0.11278   0.11673   0.11722
 Alpha virt. eigenvalues --    0.11949   0.12223   0.12490   0.12616   0.12671
 Alpha virt. eigenvalues --    0.12753   0.13010   0.13054   0.13081   0.13193
 Alpha virt. eigenvalues --    0.13311   0.13583   0.13996   0.14000   0.14060
 Alpha virt. eigenvalues --    0.14169   0.14369   0.14658   0.14945   0.15051
 Alpha virt. eigenvalues --    0.15453   0.15485   0.15666   0.15807   0.16020
 Alpha virt. eigenvalues --    0.16527   0.16634   0.16704   0.16782   0.16976
 Alpha virt. eigenvalues --    0.17143   0.17271   0.17637   0.17980   0.18002
 Alpha virt. eigenvalues --    0.18124   0.18664   0.18736   0.18785   0.19005
 Alpha virt. eigenvalues --    0.19120   0.19131   0.19159   0.19476   0.19614
 Alpha virt. eigenvalues --    0.19934   0.19995   0.20035   0.20359   0.20364
 Alpha virt. eigenvalues --    0.20505   0.20602   0.20631   0.20969   0.21011
 Alpha virt. eigenvalues --    0.21222   0.21243   0.21730   0.21786   0.21872
 Alpha virt. eigenvalues --    0.22187   0.22250   0.22448   0.22723   0.22815
 Alpha virt. eigenvalues --    0.22887   0.23032   0.23184   0.23563   0.23727
 Alpha virt. eigenvalues --    0.23779   0.23787   0.23839   0.24079   0.24189
 Alpha virt. eigenvalues --    0.24238   0.24527   0.24567   0.24602   0.25084
 Alpha virt. eigenvalues --    0.25229   0.25299   0.25476   0.25852   0.25938
 Alpha virt. eigenvalues --    0.26401   0.26576   0.26596   0.26703   0.26751
 Alpha virt. eigenvalues --    0.26846   0.26909   0.27049   0.27491   0.27624
 Alpha virt. eigenvalues --    0.27634   0.28602   0.28791   0.29251   0.29364
 Alpha virt. eigenvalues --    0.29412   0.29499   0.29592   0.29848   0.29886
 Alpha virt. eigenvalues --    0.29943   0.30205   0.30308   0.30432   0.30504
 Alpha virt. eigenvalues --    0.30837   0.31128   0.31239   0.31291   0.31311
 Alpha virt. eigenvalues --    0.31794   0.32009   0.32231   0.32246   0.32372
 Alpha virt. eigenvalues --    0.32764   0.32958   0.32988   0.33139   0.33609
 Alpha virt. eigenvalues --    0.33750   0.33771   0.34182   0.34364   0.34777
 Alpha virt. eigenvalues --    0.35007   0.35155   0.35338   0.35345   0.35774
 Alpha virt. eigenvalues --    0.35825   0.36094   0.36146   0.36538   0.36915
 Alpha virt. eigenvalues --    0.37224   0.37433   0.39053   0.39692   0.40351
 Alpha virt. eigenvalues --    0.40564   0.40876   0.41681   0.41769   0.42259
 Alpha virt. eigenvalues --    0.42351   0.43141   0.43840   0.45108   0.45237
 Alpha virt. eigenvalues --    0.45324   0.46101   0.46611   0.46629   0.47820
 Alpha virt. eigenvalues --    0.48112   0.48679   0.50657   0.51028   0.51218
 Alpha virt. eigenvalues --    0.51426   0.51698   0.51969   0.52324   0.52416
 Alpha virt. eigenvalues --    0.52630   0.52683   0.52731   0.53118   0.53717
 Alpha virt. eigenvalues --    0.54083   0.54276   0.54358   0.54520   0.54774
 Alpha virt. eigenvalues --    0.56091   0.56294   0.56312   0.56396   0.57233
 Alpha virt. eigenvalues --    0.57535   0.57638   0.57768   0.57868   0.58918
 Alpha virt. eigenvalues --    0.59019   0.59038   0.60816   0.61273   0.61455
 Alpha virt. eigenvalues --    0.61561   0.61754   0.62102   0.62270   0.62300
 Alpha virt. eigenvalues --    0.62422   0.62516   0.63210   0.63222   0.63862
 Alpha virt. eigenvalues --    0.64542   0.64604   0.64619   0.64770   0.65280
 Alpha virt. eigenvalues --    0.65461   0.65532   0.65546   0.65664   0.66078
 Alpha virt. eigenvalues --    0.66300   0.66355   0.66993   0.67142   0.67496
 Alpha virt. eigenvalues --    0.67583   0.67821   0.68158   0.68286   0.68343
 Alpha virt. eigenvalues --    0.68493   0.68617   0.68840   0.68851   0.69296
 Alpha virt. eigenvalues --    0.69715   0.69826   0.69960   0.70078   0.70586
 Alpha virt. eigenvalues --    0.70668   0.70829   0.71237   0.71447   0.71478
 Alpha virt. eigenvalues --    0.71567   0.71732   0.72115   0.72144   0.72336
 Alpha virt. eigenvalues --    0.72466   0.73427   0.73543   0.73644   0.73995
 Alpha virt. eigenvalues --    0.74078   0.74329   0.74478   0.74742   0.75090
 Alpha virt. eigenvalues --    0.75163   0.75935   0.76013   0.76323   0.76812
 Alpha virt. eigenvalues --    0.77156   0.78076   0.78092   0.78329   0.78480
 Alpha virt. eigenvalues --    0.78523   0.78897   0.79196   0.79416   0.80272
 Alpha virt. eigenvalues --    0.80296   0.81152   0.81956   0.81975   0.82400
 Alpha virt. eigenvalues --    0.83494   0.83520   0.84147   0.84284   0.84399
 Alpha virt. eigenvalues --    0.84527   0.84711   0.84891   0.85082   0.85480
 Alpha virt. eigenvalues --    0.85710   0.85824   0.86042   0.86090   0.86106
 Alpha virt. eigenvalues --    0.86519   0.86561   0.86602   0.86878   0.87254
 Alpha virt. eigenvalues --    0.88025   0.88374   0.89338   0.89353   0.89922
 Alpha virt. eigenvalues --    0.89942   0.90074   0.90438   0.91351   0.91612
 Alpha virt. eigenvalues --    0.91621   0.92626   0.92640   0.92701   0.93886
 Alpha virt. eigenvalues --    0.94119   0.94142   0.94367   0.94767   0.94809
 Alpha virt. eigenvalues --    0.95869   0.96598   0.97205   0.97212   0.97368
 Alpha virt. eigenvalues --    0.97682   0.97747   0.97919   0.98729   0.98801
 Alpha virt. eigenvalues --    0.99170   0.99408   0.99784   1.00721   1.01359
 Alpha virt. eigenvalues --    1.01453   1.01558   1.01979   1.02237   1.02366
 Alpha virt. eigenvalues --    1.02453   1.02467   1.02913   1.04160   1.04719
 Alpha virt. eigenvalues --    1.05022   1.05824   1.06577   1.07121   1.07178
 Alpha virt. eigenvalues --    1.07566   1.08108   1.08119   1.08434   1.08856
 Alpha virt. eigenvalues --    1.09220   1.09249   1.09686   1.11941   1.12156
 Alpha virt. eigenvalues --    1.12371   1.12806   1.13008   1.13204   1.14344
 Alpha virt. eigenvalues --    1.14453   1.16161   1.16179   1.17014   1.17446
 Alpha virt. eigenvalues --    1.18132   1.18517   1.19273   1.19458   1.19754
 Alpha virt. eigenvalues --    1.19840   1.20456   1.21270   1.21962   1.22191
 Alpha virt. eigenvalues --    1.23835   1.24163   1.24428   1.26656   1.27189
 Alpha virt. eigenvalues --    1.28592   1.29401   1.31024   1.31252   1.32138
 Alpha virt. eigenvalues --    1.32792   1.33114   1.33632   1.37552   1.38186
 Alpha virt. eigenvalues --    1.38884   1.38985   1.39292   1.39392   1.41623
 Alpha virt. eigenvalues --    1.42224   1.42860   1.44283   1.44665   1.46788
 Alpha virt. eigenvalues --    1.46991   1.49234   1.49803   1.49826   1.50297
 Alpha virt. eigenvalues --    1.50350   1.50456   1.51233   1.51722   1.51829
 Alpha virt. eigenvalues --    1.51952   1.52120   1.52458   1.52624   1.53014
 Alpha virt. eigenvalues --    1.53148   1.53893   1.53912   1.54740   1.55096
 Alpha virt. eigenvalues --    1.55602   1.55979   1.56421   1.56620   1.56793
 Alpha virt. eigenvalues --    1.57153   1.57300   1.58322   1.58411   1.58657
 Alpha virt. eigenvalues --    1.59604   1.61302   1.61776   1.61914   1.62163
 Alpha virt. eigenvalues --    1.62467   1.62928   1.63353   1.64758   1.65121
 Alpha virt. eigenvalues --    1.65135   1.65725   1.65900   1.66050   1.66361
 Alpha virt. eigenvalues --    1.66562   1.66893   1.67184   1.67775   1.68282
 Alpha virt. eigenvalues --    1.68298   1.70024   1.70474   1.70947   1.71322
 Alpha virt. eigenvalues --    1.72176   1.72382   1.73085   1.73160   1.74588
 Alpha virt. eigenvalues --    1.74906   1.75062   1.75178   1.75791   1.75871
 Alpha virt. eigenvalues --    1.76292   1.76546   1.76745   1.77431   1.78827
 Alpha virt. eigenvalues --    1.79382   1.79716   1.79993   1.80503   1.81046
 Alpha virt. eigenvalues --    1.81179   1.82107   1.82311   1.82702   1.82917
 Alpha virt. eigenvalues --    1.83066   1.84632   1.86286   1.87023   1.87430
 Alpha virt. eigenvalues --    1.87440   1.88628   1.88654   1.88693   1.89026
 Alpha virt. eigenvalues --    1.89476   1.89846   1.90627   1.91165   1.92034
 Alpha virt. eigenvalues --    1.92446   1.92607   1.92726   1.93829   1.94465
 Alpha virt. eigenvalues --    1.95107   1.95226   1.95296   1.95730   1.95909
 Alpha virt. eigenvalues --    1.95994   1.96647   1.97167   1.97807   1.97947
 Alpha virt. eigenvalues --    1.98219   1.98265   1.98668   1.99461   1.99691
 Alpha virt. eigenvalues --    2.00477   2.00900   2.01256   2.02523   2.02980
 Alpha virt. eigenvalues --    2.03090   2.03794   2.03879   2.04774   2.05125
 Alpha virt. eigenvalues --    2.05995   2.06212   2.06495   2.06644   2.07080
 Alpha virt. eigenvalues --    2.07662   2.08368   2.08529   2.08768   2.10709
 Alpha virt. eigenvalues --    2.12452   2.13539   2.13780   2.14185   2.14792
 Alpha virt. eigenvalues --    2.14818   2.16331   2.17344   2.17447   2.18202
 Alpha virt. eigenvalues --    2.18987   2.20667   2.21720   2.21814   2.23464
 Alpha virt. eigenvalues --    2.24074   2.24157   2.25493   2.26381   2.26535
 Alpha virt. eigenvalues --    2.26777   2.27151   2.29530   2.30152   2.30456
 Alpha virt. eigenvalues --    2.32698   2.32801   2.32846   2.34038   2.34995
 Alpha virt. eigenvalues --    2.35064   2.35571   2.38007   2.38383   2.39255
 Alpha virt. eigenvalues --    2.39390   2.40646   2.40739   2.41095   2.41442
 Alpha virt. eigenvalues --    2.42221   2.42274   2.42297   2.42349   2.42803
 Alpha virt. eigenvalues --    2.43747   2.44903   2.45026   2.45556   2.46276
 Alpha virt. eigenvalues --    2.46879   2.50859   2.54819   2.55716   2.55995
 Alpha virt. eigenvalues --    2.57242   2.57678   2.57894   2.58309   2.61000
 Alpha virt. eigenvalues --    2.61383   2.61944   2.62033   2.62180   2.62577
 Alpha virt. eigenvalues --    2.63702   2.64900   2.65486   2.66129   2.67177
 Alpha virt. eigenvalues --    2.69253   2.70284   2.70416   2.70931   2.70993
 Alpha virt. eigenvalues --    2.71573   2.73006   2.73037   2.73155   2.73316
 Alpha virt. eigenvalues --    2.73417   2.73959   2.74492   2.75350   2.75399
 Alpha virt. eigenvalues --    2.75514   2.75591   2.76184   2.76966   2.77057
 Alpha virt. eigenvalues --    2.77307   2.77916   2.78422   2.78691   2.78888
 Alpha virt. eigenvalues --    2.79216   2.79248   2.79684   2.79950   2.80571
 Alpha virt. eigenvalues --    2.80716   2.81078   2.81395   2.81651   2.81733
 Alpha virt. eigenvalues --    2.82737   2.83256   2.83640   2.83820   2.83829
 Alpha virt. eigenvalues --    2.83967   2.84391   2.85242   2.85305   2.85676
 Alpha virt. eigenvalues --    2.87133   2.87548   2.87679   2.88896   2.88977
 Alpha virt. eigenvalues --    2.90408   2.90430   2.90580   2.91123   2.91934
 Alpha virt. eigenvalues --    2.92224   2.92376   2.92447   2.92654   2.93187
 Alpha virt. eigenvalues --    2.93641   2.95043   2.95689   2.98596   2.99247
 Alpha virt. eigenvalues --    2.99447   3.03638   3.03688   3.04331   3.05710
 Alpha virt. eigenvalues --    3.06620   3.07308   3.07918   3.09273   3.10128
 Alpha virt. eigenvalues --    3.13059   3.13286   3.15171   3.15408   3.16543
 Alpha virt. eigenvalues --    3.17146   3.18016   3.18238   3.18408   3.19205
 Alpha virt. eigenvalues --    3.20154   3.21052   3.21143   3.21752   3.22617
 Alpha virt. eigenvalues --    3.26879   3.27926   3.31277   3.32569   3.33115
 Alpha virt. eigenvalues --    3.34034   3.34955   3.34984   3.35782   3.37712
 Alpha virt. eigenvalues --    3.38695   3.40300   3.41470   3.43560   3.43893
 Alpha virt. eigenvalues --    3.45510   3.47309   3.47473   3.47575   3.48122
 Alpha virt. eigenvalues --    3.48662   3.49388   3.49432   3.49693   3.53976
 Alpha virt. eigenvalues --    3.54694   3.56268   3.57532   3.58826   3.59425
 Alpha virt. eigenvalues --    3.61080   3.61499   3.62318   3.63214   3.66120
 Alpha virt. eigenvalues --    3.72909   3.73135   3.75899   3.77091   3.80776
 Alpha virt. eigenvalues --    3.82281   3.91539   3.92247   3.92830   3.93998
 Alpha virt. eigenvalues --    3.94725   3.95366   3.95780   3.96548   4.01756
 Alpha virt. eigenvalues --    4.01940   4.08610   4.11270   4.12002   4.12533
 Alpha virt. eigenvalues --    4.13417   4.13980   4.14165   4.14550   4.15602
 Alpha virt. eigenvalues --    4.16438   4.21589   4.26358   4.33269   4.34725
 Alpha virt. eigenvalues --    4.46068   4.48002   4.66264   4.83071   4.83476
 Alpha virt. eigenvalues --    4.84383   4.84808   4.85125   4.86739   4.89845
 Alpha virt. eigenvalues --    9.81138   9.81193  23.49352  23.60775  23.63018
 Alpha virt. eigenvalues --   23.70377  23.71770  23.80187  23.85876  23.92348
 Alpha virt. eigenvalues --   23.92690  23.92732  23.93383  23.93625  23.93808
 Alpha virt. eigenvalues --   23.94438  23.94454  23.95090  23.96303  23.98899
 Alpha virt. eigenvalues --   23.99192  24.01898  24.01920  24.04969  24.05102
 Alpha virt. eigenvalues --   24.07192  24.07386  24.07931  24.08071  24.08345
 Alpha virt. eigenvalues --   24.09700  24.12800  24.14150  24.14469  24.15312
 Alpha virt. eigenvalues --   24.16983  24.18663  24.19852  24.21169  24.22053
 Alpha virt. eigenvalues --   25.93805  25.95173  26.15794  26.15978  26.71097
 Alpha virt. eigenvalues --   26.71302 215.80608 215.80691
          Condensed to atoms (all electrons):
 Mulliken charges:
               1
     1  Cl   0.401698
     2  C    0.728295
     3  C   -0.746877
     4  H    0.144543
     5  C   -0.623104
     6  H    0.121419
     7  C    0.784629
     8  C   -0.621965
     9  H    0.121397
    10  C   -0.746908
    11  H    0.144549
    12  C    0.451794
    13  C   -0.410011
    14  H    0.119672
    15  C   -0.410267
    16  H    0.119688
    17  C    0.450050
    18  C    0.785140
    19  C   -0.620976
    20  H    0.121396
    21  C   -0.745766
    22  H    0.144490
    23  C    0.721279
    24  Cl   0.402754
    25  C   -0.745042
    26  H    0.144449
    27  C   -0.620775
    28  H    0.121379
    29  C    0.173563
    30  C    0.171291
    31  C   -0.310376
    32  H    0.216027
    33  C    0.215257
    34  C    0.508223
    35  C    0.772557
    36  C   -0.481876
    37  H    0.114891
    38  C   -0.363265
    39  H    0.123565
    40  C   -0.059215
    41  H    0.122322
    42  C   -0.363904
    43  H    0.123495
    44  C   -0.481777
    45  H    0.114856
    46  C   -0.411932
    47  H    0.119795
    48  C   -0.412185
    49  H    0.119803
    50  C    0.507235
    51  C    0.216837
    52  C   -0.311182
    53  H    0.215981
    54  C    0.773513
    55  C   -0.480668
    56  H    0.114808
    57  C   -0.363448
    58  H    0.123484
    59  C   -0.059943
    60  H    0.122437
    61  C   -0.364349
    62  H    0.123499
    63  C   -0.481104
    64  H    0.114857
 Sum of Mulliken charges =  -0.00000
 Mulliken charges with hydrogens summed into heavy atoms:
               1
     1  Cl   0.401698
     2  C    0.728295
     3  C   -0.602334
     5  C   -0.501685
     7  C    0.784629
     8  C   -0.500568
    10  C   -0.602359
    12  C    0.451794
    13  C   -0.290339
    15  C   -0.290579
    17  C    0.450050
    18  C    0.785140
    19  C   -0.499580
    21  C   -0.601276
    23  C    0.721279
    24  Cl   0.402754
    25  C   -0.600593
    27  C   -0.499396
    29  C    0.173563
    30  C    0.171291
    31  C   -0.094349
    33  C    0.215257
    34  C    0.508223
    35  C    0.772557
    36  C   -0.366984
    38  C   -0.239700
    40  C    0.063107
    42  C   -0.240409
    44  C   -0.366922
    46  C   -0.292137
    48  C   -0.292382
    50  C    0.507235
    51  C    0.216837
    52  C   -0.095201
    54  C    0.773513
    55  C   -0.365859
    57  C   -0.239964
    59  C    0.062493
    61  C   -0.240850
    63  C   -0.366247
 Electronic spatial extent (au):  <R**2>=          26343.9289
 Charge=             -0.0000 electrons
 Dipole moment (field-independent basis, Debye):
    X=              0.0003    Y=              0.4964    Z=              0.0016  Tot=              0.4964
 Quadrupole moment (field-independent basis, Debye-Ang):
   XX=           -256.6747   YY=           -248.0176   ZZ=           -229.4230
   XY=              0.0538   XZ=              0.0013   YZ=              0.0076
 Traceless Quadrupole moment (field-independent basis, Debye-Ang):
   XX=            -11.9696   YY=             -3.3125   ZZ=             15.2821
   XY=              0.0538   XZ=              0.0013   YZ=              0.0076
 Octapole moment (field-independent basis, Debye-Ang**2):
  XXX=              0.1826  YYY=            -31.4820  ZZZ=              0.0036  XYY=              0.1182
  XXY=             97.6143  XXZ=             -0.0674  XZZ=             -0.0552  YZZ=            -11.0306
  YYZ=              0.0376  XYZ=             -0.0105
 Hexadecapole moment (field-independent basis, Debye-Ang**3):
 XXXX=         -26428.9070 YYYY=          -9897.2590 ZZZZ=          -1216.2470 XXXY=              1.7113
 XXXZ=              0.1131 YYYX=              1.0440 YYYZ=              0.3706 ZZZX=             -0.0523
 ZZZY=              0.2650 XXYY=          -6259.4131 XXZZ=          -4130.5020 YYZZ=          -1802.3596
 XXYZ=             -0.0049 YYXZ=             -0.7085 ZZXY=              0.2158
 N-N= 4.377851936213D+03 E-N=-1.433682687871D+04  KE= 2.374395831344D+03
 Calling FoFJK, ICntrl=      2127 FMM=T ISym2X=0 I1Cent= 0 IOpClX= 0 NMat=1 NMatS=1 NMatT=0.
 ***** Axes restored to original set *****
 -------------------------------------------------------------------
 Center     Atomic                   Forces (Hartrees/Bohr)
 Number     Number              X              Y              Z
 -------------------------------------------------------------------
      1       17           0.027651508   -0.000802225   -0.000054931
      2        6          -0.027444729    0.000971485   -0.000058318
      3        6           0.004504330   -0.000266575   -0.007556450
      4        1          -0.004329689   -0.000010985    0.010457529
      5        6          -0.001528160    0.000402743   -0.003644763
      6        1           0.005254229   -0.000150948    0.009691097
      7        6           0.010737097   -0.002371128    0.000147037
      8        6          -0.000724154    0.000267946    0.003362478
      9        1           0.005051612   -0.000151179   -0.009487409
     10        6           0.003355801   -0.000092467    0.007387048
     11        1          -0.004094178   -0.000056352   -0.010238509
     12        6          -0.008918821   -0.000719687   -0.000017748
     13        6           0.000721583   -0.008035066   -0.000015536
     14        1          -0.003120405    0.010430043    0.000003559
     15        6          -0.001099069   -0.007790430    0.000002486
     16        1           0.003134105    0.010410078    0.000001140
     17        6           0.009321335   -0.001330243   -0.000008004
     18        6          -0.010627424   -0.002319741    0.000019760
     19        6           0.001630225    0.000441825    0.003590632
     20        1          -0.005250340   -0.000038856   -0.009686430
     21        6          -0.004665423   -0.000397788    0.007485983
     22        1           0.004322082   -0.000142441   -0.010434833
     23        6           0.027668763    0.001246804   -0.000018574
     24       17          -0.027439789   -0.000752043   -0.000004434
     25        6          -0.004676448   -0.000343419   -0.007466730
     26        1           0.004309545   -0.000187694    0.010422153
     27        6           0.001613372    0.000396732   -0.003604199
     28        1          -0.005258016   -0.000021825    0.009692723
     29        6          -0.006022680   -0.001560041    0.000003922
     30        6           0.006251587   -0.001077357    0.000107750
     31        6           0.012185035   -0.000536422   -0.000150413
     32        1          -0.014300539    0.000097491    0.000074910
     33        6           0.007110037    0.001983905    0.000019443
     34        6          -0.009495907    0.000696978   -0.000166381
     35        6           0.011323833    0.001911983    0.000243134
     36        6          -0.000734370   -0.000200636   -0.005461699
     37        1           0.004452513    0.000215256    0.009151997
     38        6           0.004622257    0.000146357   -0.008077448
     39        1          -0.004663091   -0.000091442    0.008432661
     40        6           0.010338831    0.000234363   -0.000162805
     41        1          -0.010394419   -0.000189204   -0.000004532
     42        6           0.005389086    0.000045968    0.008332131
     43        1          -0.004875962   -0.000079530   -0.008646007
     44        6          -0.001710825   -0.000191260    0.005889253
     45        1           0.004671525    0.000263657   -0.009645236
     46        6           0.000977213    0.007884356    0.000041344
     47        1          -0.003137816   -0.010413252    0.000086876
     48        6          -0.000967064    0.007899779   -0.000162033
     49        1           0.003129555   -0.010414689    0.000008279
     50        6           0.009994812    0.000462113    0.000112589
     51        6          -0.006934964    0.001610849    0.000074970
     52        6          -0.012546251    0.000484353   -0.000102727
     53        1           0.014278574    0.000043819    0.000049402
     54        6          -0.012260793    0.002168070    0.000036122
     55        6           0.001812029   -0.000184622   -0.005457144
     56        1          -0.004690005    0.000092055    0.009343836
     57        6          -0.005586052    0.000251752   -0.007902960
     58        1           0.004663948   -0.000093283    0.008403534
     59        6          -0.009083264    0.000197038   -0.000044741
     60        1           0.009867676   -0.000279801   -0.000006409
     61        6          -0.005803960    0.000156906    0.008063608
     62        1           0.004918546   -0.000106537   -0.008634848
     63        6           0.001565002   -0.000115673    0.005305836
     64        1          -0.004443039    0.000100140   -0.009122970
 -------------------------------------------------------------------
 Cartesian Forces:  Max     0.027668763 RMS     0.006697348

 GradGradGradGradGradGradGradGradGradGradGradGradGradGradGradGradGradGrad
 Berny optimization.
 FormGI is forming the generalized inverse of G from B-inverse, IUseBI=4.
 Internal  Forces:  Max     0.027662708 RMS     0.004346766
 Search for a local minimum.
 Step number   1 out of a maximum of  370
 All quantities printed in internal units (Hartrees-Bohrs-Radians)
 Mixed Optimization -- RFO/linear search
 Second derivative matrix not updated -- first step.
 ITU=  0
     Eigenvalues ---    0.01187   0.01187   0.01187   0.01201   0.01709
     Eigenvalues ---    0.01711   0.01713   0.01745   0.01747   0.01757
     Eigenvalues ---    0.01763   0.01770   0.01791   0.01805   0.01805
     Eigenvalues ---    0.01808   0.01810   0.01890   0.01963   0.01977
     Eigenvalues ---    0.02083   0.02083   0.02086   0.02089   0.02094
     Eigenvalues ---    0.02095   0.02097   0.02109   0.02109   0.02114
     Eigenvalues ---    0.02117   0.02118   0.02118   0.02119   0.02120
     Eigenvalues ---    0.02124   0.02125   0.02127   0.02128   0.02138
     Eigenvalues ---    0.02140   0.02141   0.02143   0.02148   0.02150
     Eigenvalues ---    0.02150   0.02156   0.02156   0.02157   0.02157
     Eigenvalues ---    0.02161   0.02162   0.02163   0.02164   0.02165
     Eigenvalues ---    0.02166   0.02169   0.02171   0.02172   0.02300
     Eigenvalues ---    0.02301   0.16000   0.16000   0.16000   0.16000
     Eigenvalues ---    0.16000   0.16000   0.16000   0.16000   0.16000
     Eigenvalues ---    0.16000   0.16000   0.16000   0.16000   0.16000
     Eigenvalues ---    0.16000   0.16000   0.16000   0.16000   0.16000
     Eigenvalues ---    0.16000   0.16000   0.16000   0.16000   0.16000
     Eigenvalues ---    0.22000   0.22000   0.22000   0.22000   0.22000
     Eigenvalues ---    0.22000   0.22488   0.22490   0.22977   0.22978
     Eigenvalues ---    0.23149   0.23478   0.23479   0.23986   0.23999
     Eigenvalues ---    0.23999   0.24480   0.24486   0.24994   0.24995
     Eigenvalues ---    0.24995   0.24997   0.25000   0.25000   0.25000
     Eigenvalues ---    0.25000   0.25000   0.25000   0.25000   0.25000
     Eigenvalues ---    0.25000   0.33352   0.33352   0.33590   0.33592
     Eigenvalues ---    0.33592   0.33593   0.33602   0.33602   0.33602
     Eigenvalues ---    0.33602   0.33635   0.33643   0.33645   0.33646
     Eigenvalues ---    0.33648   0.33651   0.33685   0.33689   0.33690
     Eigenvalues ---    0.33692   0.33703   0.33744   0.33744   0.33748
     Eigenvalues ---    0.35731   0.35741   0.35767   0.35961   0.35962
     Eigenvalues ---    0.35963   0.36085   0.37949   0.37993   0.38070
     Eigenvalues ---    0.39465   0.40176   0.41652   0.41667   0.41843
     Eigenvalues ---    0.41846   0.41862   0.41870   0.41915   0.42036
[...]
   A112       2.10638  -0.00008  -0.00050   0.00003  -0.00047   2.10591
   A113       2.08240   0.00005   0.00055  -0.00022   0.00033   2.08273
   A114       2.09441   0.00003  -0.00005   0.00018   0.00013   2.09454
    D1        0.00276  -0.00000   0.00119  -0.00107   0.00012   0.00288
    D2       -3.13803  -0.00001   0.00140  -0.00200  -0.00061  -3.13864
    D3       -3.13976   0.00001   0.00046   0.00056   0.00102  -3.13874
    D4        0.00264   0.00000   0.00067  -0.00038   0.00029   0.00293
    D5        3.13809   0.00001  -0.00126   0.00176   0.00050   3.13859
    D6       -0.00281   0.00000  -0.00127   0.00116  -0.00011  -0.00292
    D7       -0.00258  -0.00000  -0.00053   0.00013  -0.00040  -0.00298
    D8        3.13970  -0.00001  -0.00054  -0.00047  -0.00101   3.13870
    D9        3.14027   0.00000  -0.00045   0.00047   0.00002   3.14029
   D10       -0.00332   0.00001  -0.00104   0.00174   0.00071  -0.00262
   D11       -0.00051  -0.00001  -0.00025  -0.00047  -0.00071  -0.00122
   D12        3.13908   0.00000  -0.00083   0.00081  -0.00002   3.13906
   D13        0.00387  -0.00003   0.00126  -0.00280  -0.00154   0.00234
   D14       -3.12000  -0.00001   0.00003  -0.00040  -0.00036  -3.12036
   D15       -3.13973  -0.00001   0.00067  -0.00151  -0.00084  -3.14057
   D16        0.01958   0.00001  -0.00055   0.00088   0.00033   0.01991
   D17        3.13973   0.00001  -0.00072   0.00163   0.00091   3.14064
   D18       -0.00381   0.00002  -0.00112   0.00255   0.00142  -0.00239
   D19       -0.01958  -0.00000   0.00050  -0.00077  -0.00026  -0.01984
   D20        3.12006   0.00000   0.00010   0.00015   0.00025   3.12031
   D21        1.56031  -0.00001   0.00059  -0.00146  -0.00087   1.55944
   D22       -1.58127  -0.00001   0.00057  -0.00147  -0.00089  -1.58216
   D23       -1.56312   0.00001  -0.00069   0.00100   0.00031  -1.56281
   D24        1.57848   0.00001  -0.00070   0.00099   0.00028   1.57877
   D25        0.00320  -0.00001   0.00077  -0.00125  -0.00048   0.00272
   D26       -3.13908  -0.00000   0.00077  -0.00065   0.00012  -3.13896
   D27       -3.14034  -0.00000   0.00037  -0.00034   0.00003  -3.14031
   D28        0.00057   0.00001   0.00037   0.00026   0.00063   0.00120
   D29        0.00007  -0.00000  -0.00001  -0.00005  -0.00006   0.00000
   D30        3.14159  -0.00000  -0.00002  -0.00002  -0.00004   3.14155
   D31       -3.14154  -0.00000   0.00000  -0.00004  -0.00004  -3.14158
   D32       -0.00001  -0.00000  -0.00000  -0.00001  -0.00002  -0.00003
   D33        3.14155   0.00000   0.00002   0.00009   0.00011  -3.14152
   D34        0.00001   0.00000   0.00020  -0.00009   0.00011   0.00012
   D35       -0.00003   0.00000   0.00001   0.00008   0.00009   0.00006
   D36       -3.14157   0.00000   0.00018  -0.00010   0.00009  -3.14148
   D37       -3.14156  -0.00000   0.00000  -0.00004  -0.00004   3.14158
   D38        0.00006  -0.00000   0.00000  -0.00005  -0.00005   0.00001
   D39       -0.00003  -0.00000  -0.00001  -0.00001  -0.00002  -0.00005
   D40        3.14158  -0.00000  -0.00000  -0.00002  -0.00003   3.14156
   D41        3.14154   0.00000  -0.00001   0.00002   0.00001   3.14155
   D42       -0.00005   0.00000  -0.00001   0.00004   0.00004  -0.00001
   D43       -0.00003   0.00000  -0.00001   0.00001   0.00001  -0.00002
   D44        3.14157   0.00000  -0.00000   0.00004   0.00003  -3.14159
   D45        1.56083  -0.00001   0.00041  -0.00134  -0.00092   1.55991
   D46       -1.56274   0.00001  -0.00050   0.00106   0.00055  -1.56218
   D47       -1.58076  -0.00001   0.00041  -0.00136  -0.00095  -1.58171
   D48        1.57885   0.00001  -0.00050   0.00103   0.00053   1.57938
   D49        0.00000   0.00000   0.00001   0.00002   0.00004   0.00004
   D50       -3.14153  -0.00000   0.00001  -0.00005  -0.00004  -3.14157
   D51       -3.14159   0.00000   0.00001   0.00005   0.00006  -3.14153
   D52        0.00006  -0.00000   0.00001  -0.00003  -0.00002   0.00005
   D53        0.01962   0.00000  -0.00002   0.00041   0.00039   0.02001
   D54       -3.11986  -0.00001   0.00035  -0.00084  -0.00049  -3.12034
   D55       -3.13956  -0.00002   0.00085  -0.00192  -0.00107  -3.14063
   D56        0.00415  -0.00003   0.00122  -0.00318  -0.00195   0.00220
   D57        3.11987   0.00001  -0.00036   0.00080   0.00044   3.12032
   D58       -0.01955  -0.00001  -0.00009  -0.00036  -0.00045  -0.02000
   D59       -0.00414   0.00003  -0.00123   0.00314   0.00191  -0.00223
   D60        3.13963   0.00002  -0.00096   0.00198   0.00102   3.14064
   D61        3.13933  -0.00000  -0.00109   0.00068  -0.00041   3.13892
   D62       -0.00353   0.00002  -0.00134   0.00231   0.00097  -0.00256
   D63       -0.00015  -0.00002  -0.00071  -0.00057  -0.00128  -0.00143
   D64        3.14017   0.00001  -0.00097   0.00106   0.00010   3.14027
   D65       -3.13799  -0.00002   0.00234  -0.00287  -0.00053  -3.13852
   D66        0.00283  -0.00000   0.00145  -0.00134   0.00011   0.00295
   D67        0.00234   0.00001   0.00208  -0.00124   0.00084   0.00318
   D68       -3.14003   0.00002   0.00120   0.00029   0.00149  -3.13854
   D69        3.14006  -0.00002  -0.00129  -0.00029  -0.00158   3.13848
   D70       -0.00282   0.00000  -0.00146   0.00130  -0.00015  -0.00297
   D71       -0.00231  -0.00001  -0.00217   0.00124  -0.00093  -0.00324
   D72        3.13800   0.00002  -0.00234   0.00283   0.00049   3.13850
   D73        0.00351  -0.00002   0.00135  -0.00224  -0.00089   0.00262
   D74       -3.14025  -0.00000   0.00109  -0.00108  -0.00000  -3.14025
   D75       -3.13937   0.00000   0.00118  -0.00064   0.00054  -3.13883
   D76        0.00005   0.00002   0.00092   0.00052   0.00143   0.00148
   D77        0.00004  -0.00000  -0.00001  -0.00009  -0.00010  -0.00006
   D78        3.14158  -0.00000  -0.00018   0.00008  -0.00010   3.14148
   D79        3.14157  -0.00000  -0.00001  -0.00001  -0.00002   3.14155
   D80       -0.00008   0.00000  -0.00018   0.00016  -0.00002  -0.00009
   D81        3.14148   0.00000   0.00002   0.00023   0.00025  -3.14146
   D82       -0.00003   0.00000   0.00021  -0.00007   0.00014   0.00010
   D83       -0.00006   0.00000   0.00002   0.00015   0.00017   0.00011
   D84       -3.14156   0.00000   0.00020  -0.00015   0.00006  -3.14151
   D85        0.00008   0.00000  -0.00035   0.00028  -0.00007   0.00001
   D86       -3.14150  -0.00000   0.00001  -0.00006  -0.00005  -3.14155
   D87       -3.14146  -0.00000  -0.00018   0.00010  -0.00008  -3.14153
   D88        0.00015  -0.00000   0.00018  -0.00023  -0.00005   0.00010
   D89        3.14148   0.00000  -0.00016   0.00022   0.00006   3.14154
   D90       -0.00010   0.00000  -0.00002  -0.00000  -0.00002  -0.00012
   D91       -0.00009   0.00000   0.00019  -0.00011   0.00008  -0.00001
   D92        3.14151  -0.00000   0.00034  -0.00034   0.00000   3.14151
   D93       -0.00006  -0.00000  -0.00019   0.00011  -0.00008  -0.00014
   D94       -3.14154  -0.00000   0.00015  -0.00031  -0.00015   3.14150
   D95        3.14152   0.00000  -0.00034   0.00033  -0.00000   3.14151
   D96        0.00004  -0.00000   0.00001  -0.00008  -0.00007  -0.00003
   D97        3.14154   0.00000   0.00001   0.00014   0.00015  -3.14149
   D98       -0.00004   0.00000  -0.00014   0.00031   0.00017   0.00013
   D99       -0.00004   0.00000   0.00015  -0.00007   0.00008   0.00003
   D100       3.14157   0.00000  -0.00000   0.00009   0.00009  -3.14152
   D101       1.58112   0.00001   0.00014   0.00050   0.00065   1.58177
   D102      -1.57775  -0.00000   0.00041  -0.00033   0.00008  -1.57768
   D103      -1.56059   0.00001  -0.00021   0.00092   0.00071  -1.55987
   D104       1.56372   0.00000   0.00006   0.00009   0.00015   1.56387
   D105      -3.14156  -0.00000  -0.00042   0.00030  -0.00012   3.14150
   D106      -0.00003   0.00000  -0.00032   0.00036   0.00003   0.00001
   D107       0.00015  -0.00000  -0.00007  -0.00012  -0.00019  -0.00004
   D108      -3.14150  -0.00000   0.00002  -0.00006  -0.00004  -3.14154
   D109      -0.01714  -0.00001   0.00011  -0.00053  -0.00042  -0.01756
   D110       3.12166   0.00001  -0.00078   0.00107   0.00028   3.12195
   D111       3.14140   0.00000  -0.00014   0.00028   0.00015   3.14155
   D112      -0.00298   0.00002  -0.00103   0.00188   0.00085  -0.00213
   D113      -3.12171  -0.00001   0.00064  -0.00083  -0.00019  -3.12190
   D114       0.01714   0.00001  -0.00021   0.00053   0.00032   0.01745
   D115       0.00294  -0.00001   0.00088  -0.00165  -0.00076   0.00217
   D116      -3.14140  -0.00000   0.00003  -0.00029  -0.00025   3.14153
   D117      -3.13873  -0.00001   0.00060  -0.00124  -0.00064  -3.13937
   D118       0.00245  -0.00001   0.00062  -0.00115  -0.00052   0.00193
   D119       0.00005   0.00000  -0.00029   0.00037   0.00008   0.00012
   D120       3.14123   0.00000  -0.00028   0.00047   0.00019   3.14142
   D121       3.13913   0.00000   0.00014  -0.00001   0.00012   3.13925
   D122      -0.00180   0.00000  -0.00005   0.00014   0.00008  -0.00171
   D123      -0.00288   0.00000   0.00016   0.00008   0.00024  -0.00264
   D124       3.13939   0.00000  -0.00003   0.00023   0.00020   3.13958
   D125      -3.13924  -0.00001   0.00008  -0.00040  -0.00032  -3.13956
   D126       0.00175   0.00000  -0.00009   0.00010   0.00001   0.00176
   D127       0.00302  -0.00001  -0.00011  -0.00025  -0.00036   0.00266
   D128      -3.13917   0.00000  -0.00028   0.00025  -0.00003  -3.13921
   D129      -0.00235   0.00001  -0.00033   0.00067   0.00034  -0.00201
   D130      -3.14118  -0.00000   0.00052  -0.00069  -0.00017  -3.14135
   D131       3.13864   0.00001  -0.00051   0.00117   0.00067   3.13931
   D132      -0.00019   0.00000   0.00035  -0.00020   0.00015  -0.00003
   D133       3.14140   0.00000   0.00019   0.00008   0.00028  -3.14151
   D134       0.00001  -0.00000   0.00050  -0.00049   0.00001   0.00001
   D135      -0.00024   0.00001   0.00028   0.00014   0.00043   0.00019
   D136       3.14154   0.00000   0.00059  -0.00043   0.00016  -3.14148
   D137      -0.00000   0.00000  -0.00032   0.00032  -0.00000  -0.00001
   D138       3.14157   0.00000  -0.00015   0.00023   0.00008  -3.14154
   D139      -3.14140  -0.00000  -0.00002  -0.00026  -0.00027   3.14151
   D140       0.00017  -0.00000   0.00016  -0.00035  -0.00019  -0.00002
   D141       0.00002  -0.00000   0.00001  -0.00004  -0.00004  -0.00002
   D142      -3.14159  -0.00000   0.00016  -0.00022  -0.00005   3.14154
   D143      -3.14155  -0.00000  -0.00017   0.00005  -0.00012   3.14151
   D144       0.00003  -0.00000  -0.00002  -0.00013  -0.00014  -0.00011
   D145       1.56395  -0.00000   0.00040  -0.00048  -0.00009   1.56387
   D146      -1.56065   0.00001  -0.00035   0.00116   0.00081  -1.55984
   D147      -1.57766  -0.00000   0.00058  -0.00057   0.00000  -1.57766
   D148       1.58092   0.00001  -0.00017   0.00107   0.00090   1.58182
   D149       0.00011  -0.00000   0.00014  -0.00039  -0.00025  -0.00013
   D150      -3.14156  -0.00000  -0.00005  -0.00009  -0.00013   3.14149
   D151      -3.14146  -0.00000  -0.00001  -0.00022  -0.00023   3.14149
   D152       0.00005  -0.00000  -0.00020   0.00009  -0.00011  -0.00007
   D153       0.01695   0.00001   0.00010   0.00052   0.00061   0.01756
   D154      -3.12186  -0.00000   0.00047  -0.00053  -0.00006  -3.12193
   D155      -3.14130  -0.00001   0.00081  -0.00109  -0.00028  -3.14158
   D156       0.00307  -0.00002   0.00118  -0.00214  -0.00095   0.00212
   D157       3.12192   0.00000  -0.00032   0.00032   0.00000   3.12192
   D158      -0.01706  -0.00001   0.00003  -0.00053  -0.00051  -0.01757
   D159      -0.00301   0.00002  -0.00104   0.00193   0.00089  -0.00212
   D160       3.14119   0.00001  -0.00069   0.00107   0.00038   3.14157
   D161       3.13886   0.00001  -0.00047   0.00086   0.00040   3.13925
   D162      -0.00256   0.00001  -0.00076   0.00140   0.00064  -0.00192
   D163       0.00006  -0.00000  -0.00009  -0.00019  -0.00028  -0.00022
   D164      -3.14135   0.00000  -0.00039   0.00034  -0.00004  -3.14139
   D165      -3.13899  -0.00000   0.00030  -0.00055  -0.00026  -3.13925
   D166       0.00192  -0.00000   0.00017  -0.00041  -0.00024   0.00168
   D167       0.00278  -0.00000   0.00000  -0.00002  -0.00001   0.00276
   D168      -3.13950   0.00000  -0.00013   0.00013   0.00000  -3.13949
   D169       3.13943   0.00000   0.00006   0.00008   0.00014   3.13956
   D170      -0.00186   0.00000  -0.00002   0.00020   0.00018  -0.00168
   D171      -0.00285   0.00000  -0.00007   0.00022   0.00015  -0.00269
   D172       3.13905   0.00000  -0.00015   0.00035   0.00020   3.13924
   D173       0.00244  -0.00001   0.00047  -0.00098  -0.00052   0.00193
   D174       3.14141  -0.00000   0.00012  -0.00012  -0.00000   3.14141
   D175      -3.13885  -0.00001   0.00038  -0.00085  -0.00047  -3.13932
   D176       0.00012   0.00000   0.00003   0.00001   0.00004   0.00016
         Item               Value     Threshold  Converged?
 Maximum Force            0.002759     0.000450     NO 
 RMS     Force            0.000281     0.000300     YES
 Maximum Displacement     0.009889     0.001800     NO 
 RMS     Displacement     0.001750     0.001200     NO 
 Predicted change in Energy=-7.016500D-05
 GradGradGradGradGradGradGradGradGradGradGradGradGradGradGradGradGradGrad

 Stoichiometry    C38H24Cl2
 Framework group  C1[X(C38H24Cl2)]
 Deg. of freedom   186
 Full point group                 C1      NOp   1
 Largest Abelian subgroup         C1      NOp   1
 Largest concise Abelian subgroup C1      NOp   1
                         Standard orientation:                         
 ---------------------------------------------------------------------
 Center     Atomic      Atomic             Coordinates (Angstroms)
 Number     Number       Type             X           Y           Z
 ---------------------------------------------------------------------
      1         17           0       -7.470583   -2.426089    0.000140
      2          6           0       -5.712364   -2.347692    0.000078
      3          6           0       -5.028698   -2.319171    1.210601
      4          1           0       -5.575035   -2.347740    2.144709
      5          6           0       -3.637127   -2.253507    1.201959
      6          1           0       -3.100824   -2.229876    2.143840
      7          6           0       -2.921734   -2.219201    0.000044
      8          6           0       -3.637336   -2.249534   -1.201831
      9          1           0       -3.101210   -2.222856   -2.143738
     10          6           0       -5.028903   -2.315229   -1.210449
     11          1           0       -5.575406   -2.340797   -2.144551
     12          6           0       -1.427007   -2.175973    0.000045
     13          6           0       -0.710345   -3.344767    0.000084
     14          1           0       -1.236175   -4.293052    0.000112
     15          6           0        0.710379   -3.344775    0.000037
     16          1           0        1.236191   -4.293070    0.000078
     17          6           0        1.427029   -2.175986   -0.000042
     18          6           0        2.921759   -2.219210   -0.000041
     19          6           0        3.637201   -2.253068   -1.201923
     20          1           0        3.100963   -2.229002   -2.143831
     21          6           0        5.028782   -2.318749   -1.210529
     22          1           0        5.575136   -2.347095   -2.144631
     23          6           0        5.712377   -2.347805    0.000007
     24         17           0        7.470596   -2.426054    0.000039
     25          6           0        5.028869   -2.315872    1.210524
     26          1           0        5.575293   -2.342056    2.144649
     27          6           0        3.637295   -2.250180    1.201867
     28          1           0        3.101131   -2.223861    2.143757
     29          6           0        0.722143   -0.919880   -0.000090
     30          6           0       -0.722120   -0.919873   -0.000008
     31          6           0       -1.395632    0.307519    0.000083
     32          1           0       -2.477365    0.309251    0.000201
     33          6           0       -0.722116    1.535199   -0.000023
     34          6           0       -1.428980    2.790148    0.000003
     35          6           0       -2.924257    2.832288   -0.000038
     36          6           0       -3.637069    2.865551    1.204244
     37          1           0       -3.094922    2.843935    2.143253
     38          6           0       -5.029676    2.928368    1.204536
     39          1           0       -5.566782    2.955557    2.146077
     40          6           0       -5.729907    2.956519   -0.000197
     41          1           0       -6.812921    3.003173   -0.000286
     42          6           0       -5.029741    2.923581   -1.204875
     43          1           0       -5.566914    2.947049   -2.146474
     44          6           0       -3.637147    2.860715   -1.204425
     45          1           0       -3.095029    2.835431   -2.143353
     46          6           0       -0.710386    3.957832    0.000008
     47          1           0       -1.236085    4.906223   -0.000059
     48          6           0        0.710351    3.957834   -0.000021
     49          1           0        1.236045    4.906226    0.000067
     50          6           0        1.428951    2.790153   -0.000068
     51          6           0        0.722095    1.535191   -0.000082
     52          6           0        1.395647    0.307537   -0.000192
     53          1           0        2.477374    0.309247   -0.000334
     54          6           0        2.924252    2.832336   -0.000025
     55          6           0        3.637132    2.860727    1.204344
     56          1           0        3.095076    2.835283    2.143305
     57          6           0        5.029745    2.923608    1.204782
     58          1           0        5.566930    2.947100    2.146371
     59          6           0        5.729854    2.956700    0.000101
     60          1           0        6.812878    3.003402    0.000147
     61          6           0        5.029643    2.928600   -1.204640
     62          1           0        5.566713    2.955927   -2.146188
     63          6           0        3.637021    2.865714   -1.204325
     64          1           0        3.094844    2.844149   -2.143316
 ---------------------------------------------------------------------
 Rotational constants (GHZ):           0.1276071           0.0478159           0.0365595
 Standard basis: 6-311+G(d,p) (5D, 7F)
 There are  1080 symmetry adapted cartesian basis functions of A   symmetry.
 There are  1040 symmetry adapted basis functions of A   symmetry.
  1040 basis functions,  1666 primitive gaussians,  1080 cartesian basis functions
   143 alpha electrons      143 beta electrons
       nuclear repulsion energy      4344.2715084809 Hartrees.
 NAtoms=   64 NActive=   64 NUniq=   64 SFac= 1.00D+00 NAtFMM=   60 NAOKFM=T Big=T
 Integral buffers will be    131072 words long.
 Raffenetti 2 integral format.
 Two-electron integral symmetry is turned on.
 One-electron integrals computed using PRISM.
 NBasis=  1040 RedAO= T EigKep=  1.04D-06  NBF=  1040
 NBsUse=  1022 1.00D-06 EigRej=  7.81D-07 NBFU=  1022
 Initial guess from the checkpoint file:  "anth_cl.chk"
 B after Tr=    -0.000000    0.000000    0.000000
         Rot=    1.000000   -0.000002   -0.000000    0.000004 Ang=  -0.00 deg.
 Requested convergence on RMS density matrix=1.00D-08 within 128 cycles.
 Requested convergence on MAX density matrix=1.00D-06.
 Requested convergence on             energy=1.00D-06.
 No special actions if energy rises.
 SCF Done:  E(RB3LYP) =  -2383.33463701     A.U. after   11 cycles
            NFock= 11  Conv=0.58D-08     -V/T= 2.0037
 Calling FoFJK, ICntrl=      2127 FMM=T ISym2X=0 I1Cent= 0 IOpClX= 0 NMat=1 NMatS=1 NMatT=0.
