 Entering Gaussian System, Link 0=g16
 Input=/media/dr/Backup_Plus2/nanocar/AU100_surface/anth_H_100/dft/anth_H.com
 Output=/media/dr/Backup_Plus2/nanocar/AU100_surface/anth_H_100/dft/anth_H.log
 Initial command:
 /opt/g16/l1.exe "/home/dr/scratches/g16/Gau-598736.inp" -scrdir="/home/dr/scratches/g16/"
 Entering Link 1 = /opt/g16/l1.exe PID=    598739.
  
 Copyright (c) 1988-2017, Gaussian, Inc.  All Rights Reserved.
  
 This is part of the Gaussian(R) 16 program.  It is based on
 the Gaussian(R) 09 system (copyright 2009, Gaussian, Inc.),
 the Gaussian(R) 03 system (copyright 2003, Gaussian, Inc.),
 the Gaussian(R) 98 system (copyright 1998, Gaussian, Inc.),
 the Gaussian(R) 94 system (copyright 1995, Gaussian, Inc.),
 the Gaussian 92(TM) system (copyright 1992, Gaussian, Inc.),
 the Gaussian 90(TM) system (copyright 1990, Gaussian, Inc.),
 the Gaussian 88(TM) system (copyright 1988, Gaussian, Inc.),
 the Gaussian 86(TM) system (copyright 1986, Carnegie Mellon
 University), and the Gaussian 82(TM) system (copyright 1983,
 Carnegie Mellon University). Gaussian is a federally registered
 trademark of Gaussian, Inc.
  
 This software contains proprietary and confidential information,
 including trade secrets, belonging to Gaussian, Inc.
  
 This software is provided under written license and may be
 used, copied, transmitted, or stored only in accord with that
 written license.
  
 The following legend is applicable only to US Government
 contracts under FAR:
  
                    RESTRICTED RIGHTS LEGEND
  
 Use, reproduction and disclosure by the US Government is
 subject to restrictions as set forth in subparagraphs (a)
 and (c) of the Commercial Computer Software - Restricted
 Rights clause in FAR 52.227-19.
  
 Gaussian, Inc.
 340 Quinnipiac St., Bldg. 40, Wallingford CT 06492
  
  
 ---------------------------------------------------------------
 Warning -- This program may not be used in any manner that
 competes with the business of Gaussian, Inc. or will provide
 assistance to any competitor of Gaussian, Inc.  The licensee
 of this program is prohibited from giving any competitor of
 Gaussian, Inc. access to this program.  By using this program,
 the user acknowledges that Gaussian, Inc. is engaged in the
 business of creating and licensing software in the field of
 computational chemistry and represents and warrants to the
 licensee that it is not a competitor of Gaussian, Inc. and that
 it will not use this program in any manner prohibited above.
 ---------------------------------------------------------------
  

 Cite this work as:
 Gaussian 16, Revision B.01,
 M. J. Frisch, G. W. Trucks, H. B. Schlegel, G. E. Scuseria, 
 M. A. Robb, J. R. Cheeseman, G. Scalmani, V. Barone, 
 G. A. Petersson, H. Nakatsuji, X. Li, M. Caricato, A. V. Marenich, 
 J. Bloino, B. G. Janesko, R. Gomperts, B. Mennucci, H. P. Hratchian, 
 J. V. Ortiz, A. F. Izmaylov, J. L. Sonnenberg, D. Williams-Young, 
 F. Ding, F. Lipparini, F. Egidi, J. Goings, B. Peng, A. Petrone, 
 T. Henderson, D. Ranasinghe, V. G. Zakrzewski, J. Gao, N. Rega, 
 G. Zheng, W. Liang, M. Hada, M. Ehara, K. Toyota, R. Fukuda, 
 J. Hasegawa, M. Ishida, T. Nakajima, Y. Honda, O. Kitao, H. Nakai, 
 T. Vreven, K. Throssell, J. A. Montgomery, Jr., J. E. Peralta, 
 F. Ogliaro, M. J. Bearpark, J. J. Heyd, E. N. Brothers, K. N. Kudin, 
 V. N. Staroverov, T. A. Keith, R. Kobayashi, J. Normand, 
 K. Raghavachari, A. P. Rendell, J. C. Burant, S. S. Iyengar, 
 J. Tomasi, M. Cossi, J. M. Millam, M. Klene, C. Adamo, R. Cammi, 
 J. W. Ochterski, R. L. Martin, K. Morokuma, O. Farkas, 
 J. B. Foresman, and D. J. Fox, Gaussian, Inc., Wallingford CT, 2016.
 
 ******************************************
 Gaussian 16:  ES64L-G16RevB.01 20-Dec-2017
                 6-Mar-2026 
 ******************************************
 %chk=anth_H.chk
 ----------------------------------------------
 # opt freq b3lyp/6-31+g(d,p) geom=connectivity
 ----------------------------------------------
 1/18=20,19=15,26=3,38=1,57=2/1,3;
 2/9=110,12=2,17=6,18=5,40=1/2;
 3/5=1,6=6,7=111,11=2,25=1,30=1,71=1,74=-5/1,2,3;
 4//1;
 5/5=2,38=5/2;
 6/7=2,8=2,9=2,10=2,28=1/1;
 7//1,2,3,16;
 1/18=20,19=15,26=3/3(2);
 2/9=110/2;
 99//99;
 2/9=110/2;
 3/5=1,6=6,7=111,11=2,25=1,30=1,71=1,74=-5/1,2,3;
 4/5=5,16=3,69=1/1;
 5/5=2,38=5/2;
 7//1,2,3,16;
 1/18=20,19=15,26=3/3(-5);
 2/9=110/2;
 6/7=2,8=2,9=2,10=2,19=2,28=1/1;
 99/9=1/99;
 --------------------------------------
 UNITED ATOM STRUCTURE FOR MOLECULE UNL
 --------------------------------------
 Symbolic Z-matrix:
 Charge =  0 Multiplicity = 1
 H(PDBName=H21,ResName=ANT,ResNum=0) -6.778    -2.647     0. 
 C(PDBName=C31,ResName=ANT,ResNum=0) -5.679    -2.605     0. 
 C(PDBName=C30,ResName=ANT,ResNum=0) -4.981    -2.578    -1.207 
 H(PDBName=H20,ResName=ANT,ResNum=0) -5.529    -2.597    -2.16 
 C(PDBName=C29,ResName=ANT,ResNum=0) -3.588    -2.528    -1.209 
 H(PDBName=H19,ResName=ANT,ResNum=0) -3.039    -2.507    -2.162 
 C(PDBName=C28,ResName=ANT,ResNum=0) -2.883    -2.504     0.001 
 C(PDBName=C33,ResName=ANT,ResNum=0) -3.589    -2.53      1.21 
 H(PDBName=H23,ResName=ANT,ResNum=0) -3.039    -2.511     2.164 
 C(PDBName=C32,ResName=ANT,ResNum=0) -4.982    -2.579     1.207 
 H(PDBName=H22,ResName=ANT,ResNum=0) -5.53     -2.597     2.161 
 C(PDBName=C27,ResName=ANT,ResNum=0) -1.415    -2.48      0.001 
 C(PDBName=C26,ResName=ANT,ResNum=0) -0.71     -3.656     0.001 
 H(PDBName=H18,ResName=ANT,ResNum=0) -1.234    -4.624     0. 
 C(PDBName=C25,ResName=ANT,ResNum=0)  0.711    -3.656     0.001 
 H(PDBName=H17,ResName=ANT,ResNum=0)  1.235    -4.624     0.001 
 C(PDBName=C18,ResName=ANT,ResNum=0)  1.415    -2.48      0.001 
 C(PDBName=C19,ResName=ANT,ResNum=0)  2.883    -2.503     0.001 
 C(PDBName=C20,ResName=ANT,ResNum=0)  3.588    -2.528    -1.209 
 H(PDBName=H12,ResName=ANT,ResNum=0)  3.039    -2.508    -2.162 
 C(PDBName=C21,ResName=ANT,ResNum=0)  4.981    -2.581    -1.207 
 H(PDBName=H13,ResName=ANT,ResNum=0)  5.529    -2.602    -2.16 
 C(PDBName=C22,ResName=ANT,ResNum=0)  5.68     -2.608     0. 
 H(PDBName=H14,ResName=ANT,ResNum=0)  6.778    -2.65      0. 
 C(PDBName=C23,ResName=ANT,ResNum=0)  4.982    -2.581     1.208 
 H(PDBName=H15,ResName=ANT,ResNum=0)  5.53     -2.6       2.161 
 C(PDBName=C24,ResName=ANT,ResNum=0)  3.589    -2.529     1.211 
 H(PDBName=H16,ResName=ANT,ResNum=0)  3.039    -2.511     2.164 
 C(PDBName=C17,ResName=ANT,ResNum=0)  0.715    -1.222     0.001 
 C(PDBName=C16,ResName=ANT,ResNum=0)  1.396     0.        0.001 
 H(PDBName=H11,ResName=ANT,ResNum=0)  2.499     0.001     0.001 
 C(PDBName=C15,ResName=ANT,ResNum=0)  0.715     1.223     0. 
 C(PDBName=C8,ResName=ANT,ResNum=0)  1.415     2.481     0. 
 C(PDBName=C9,ResName=ANT,ResNum=0)  2.883     2.505     0. 
 C(PDBName=C10,ResName=ANT,ResNum=0)  3.588     2.533    -1.21 
 H(PDBName=H6,ResName=ANT,ResNum=0)  3.038     2.514    -2.163 
 C(PDBName=C11,ResName=ANT,ResNum=0)  4.981     2.584    -1.208 
 H(PDBName=H7,ResName=ANT,ResNum=0)  5.529     2.605    -2.161 
 C(PDBName=C12,ResName=ANT,ResNum=0)  5.679     2.606    -0.001 
 H(PDBName=H8,ResName=ANT,ResNum=0)  6.778     2.646    -0.001 
 C(PDBName=C13,ResName=ANT,ResNum=0)  4.982     2.577     1.207 
 H(PDBName=H9,ResName=ANT,ResNum=0)  5.53      2.592     2.16 
 C(PDBName=C14,ResName=ANT,ResNum=0)  3.589     2.526     1.21 
 H(PDBName=H10,ResName=ANT,ResNum=0)  3.04      2.503     2.163 
 C(PDBName=C7,ResName=ANT,ResNum=0)  0.71      3.656    -0.001 
 H(PDBName=H5,ResName=ANT,ResNum=0)  1.234     4.624    -0.002 
 C(PDBName=C6,ResName=ANT,ResNum=0) -0.711     3.656    -0.002 
 H(PDBName=H4,ResName=ANT,ResNum=0) -1.235     4.624    -0.002 
 C(PDBName=C5,ResName=ANT,ResNum=0) -1.415     2.48     -0.002 
 C(PDBName=C36,ResName=ANT,ResNum=0) -0.715     1.223    -0.001 
 C(PDBName=C35,ResName=ANT,ResNum=0) -1.396     0.        0. 
 C(PDBName=C34,ResName=ANT,ResNum=0) -0.715    -1.222     0.001 
 H(PDBName=H24,ResName=ANT,ResNum=0) -2.5       0.        0. 
 C(PDBName=C4,ResName=ANT,ResNum=0) -2.883     2.504    -0.001 
 C(PDBName=C3,ResName=ANT,ResNum=0) -3.589     2.531    -1.211 
 H(PDBName=H3,ResName=ANT,ResNum=0) -3.04      2.512    -2.164 
 C(PDBName=C2,ResName=ANT,ResNum=0) -4.982     2.581    -1.207 
 H(PDBName=H2,ResName=ANT,ResNum=0) -5.53      2.599    -2.16 
 C(PDBName=C1,ResName=ANT,ResNum=0) -5.68      2.607     0. 
 H(PDBName=H1,ResName=ANT,ResNum=0) -6.778     2.65      0. 
 C(PDBName=C38,ResName=ANT,ResNum=0) -4.981     2.577     1.207 
 H(PDBName=H26,ResName=ANT,ResNum=0) -5.529     2.592     2.16 
 C(PDBName=C37,ResName=ANT,ResNum=0) -3.588     2.527     1.209 
 H(PDBName=H25,ResName=ANT,ResNum=0) -3.038     2.507     2.162 
 
 Center=     -0.00001563     -0.00003125      0.00003125
 Residue   1 PDB Number     0   ANT charge    0.00000000 layers R        AvRTP=      0.00000000      0.00000000      0.00000000

 GradGradGradGradGradGradGradGradGradGradGradGradGradGradGradGradGradGrad
 Berny optimization.
 Initialization pass.
                           ----------------------------
                           !    Initial Parameters    !
                           ! (Angstroms and Degrees)  !
 --------------------------                            --------------------------
 ! Name  Definition              Value          Derivative Info.                !
 --------------------------------------------------------------------------------
 ! R1    R(1,2)                  1.0998         estimate D2E/DX2                !
 ! R2    R(2,3)                  1.3946         estimate D2E/DX2                !
 ! R3    R(2,10)                 1.394          estimate D2E/DX2                !
 ! R4    R(3,4)                  1.0995         estimate D2E/DX2                !
 ! R5    R(3,5)                  1.3939         estimate D2E/DX2                !
 ! R6    R(5,6)                  1.1            estimate D2E/DX2                !
 ! R7    R(5,7)                  1.4006         estimate D2E/DX2                !
 ! R8    R(7,8)                  1.4003         estimate D2E/DX2                !
 ! R9    R(7,12)                 1.4682         estimate D2E/DX2                !
 ! R10   R(8,9)                  1.1014         estimate D2E/DX2                !
 ! R11   R(8,10)                 1.3939         estimate D2E/DX2                !
 ! R12   R(10,11)                1.1003         estimate D2E/DX2                !
 ! R13   R(12,13)                1.3711         estimate D2E/DX2                !
 ! R14   R(12,52)                1.4396         estimate D2E/DX2                !
 ! R15   R(13,14)                1.1007         estimate D2E/DX2                !
 ! R16   R(13,15)                1.421          estimate D2E/DX2                !
 ! R17   R(15,16)                1.1007         estimate D2E/DX2                !
 ! R18   R(15,17)                1.3706         estimate D2E/DX2                !
 ! R19   R(17,18)                1.4682         estimate D2E/DX2                !
 ! R20   R(17,29)                1.4396         estimate D2E/DX2                !
 ! R21   R(18,19)                1.4006         estimate D2E/DX2                !
 ! R22   R(18,27)                1.4011         estimate D2E/DX2                !
 ! R23   R(19,20)                1.1            estimate D2E/DX2                !
 ! R24   R(19,21)                1.394          estimate D2E/DX2                !
 ! R25   R(21,22)                1.0995         estimate D2E/DX2                !
 ! R26   R(21,23)                1.3951         estimate D2E/DX2                !
 ! R27   R(23,24)                1.0988         estimate D2E/DX2                !
 ! R28   R(23,25)                1.3954         estimate D2E/DX2                !
 ! R29   R(25,26)                1.0995         estimate D2E/DX2                !
 ! R30   R(25,27)                1.394          estimate D2E/DX2                !
 ! R31   R(27,28)                1.1005         estimate D2E/DX2                !
 ! R32   R(29,30)                1.3989         estimate D2E/DX2                !
 ! R33   R(29,52)                1.43           estimate D2E/DX2                !
 ! R34   R(30,31)                1.103          estimate D2E/DX2                !
 ! R35   R(30,32)                1.3998         estimate D2E/DX2                !
 ! R36   R(32,33)                1.4396         estimate D2E/DX2                !
 ! R37   R(32,50)                1.43           estimate D2E/DX2                !
 ! R38   R(33,34)                1.4682         estimate D2E/DX2                !
 ! R39   R(33,45)                1.3703         estimate D2E/DX2                !
 ! R40   R(34,35)                1.4007         estimate D2E/DX2                !
 ! R41   R(34,43)                1.4011         estimate D2E/DX2                !
 ! R42   R(35,36)                1.1005         estimate D2E/DX2                !
 ! R43   R(35,37)                1.3939         estimate D2E/DX2                !
 ! R44   R(37,38)                1.0995         estimate D2E/DX2                !
 ! R45   R(37,39)                1.3945         estimate D2E/DX2                !
 ! R46   R(39,40)                1.0997         estimate D2E/DX2                !
 ! R47   R(39,41)                1.395          estimate D2E/DX2                !
 ! R48   R(41,42)                1.0994         estimate D2E/DX2                !
 ! R49   R(41,43)                1.3939         estimate D2E/DX2                !
 ! R50   R(43,44)                1.1001         estimate D2E/DX2                !
 ! R51   R(45,46)                1.1007         estimate D2E/DX2                !
 ! R52   R(45,47)                1.421          estimate D2E/DX2                !
 ! R53   R(47,48)                1.1007         estimate D2E/DX2                !
 ! R54   R(47,49)                1.3706         estimate D2E/DX2                !
 ! R55   R(49,50)                1.4388         estimate D2E/DX2                !
 ! R56   R(49,54)                1.4682         estimate D2E/DX2                !
 ! R57   R(50,51)                1.3998         estimate D2E/DX2                !
 ! R58   R(51,52)                1.3989         estimate D2E/DX2                !
 ! R59   R(51,53)                1.104          estimate D2E/DX2                !
 ! R60   R(54,55)                1.4012         estimate D2E/DX2                !
 ! R61   R(54,63)                1.4006         estimate D2E/DX2                !
 ! R62   R(55,56)                1.1            estimate D2E/DX2                !
 ! R63   R(55,57)                1.3939         estimate D2E/DX2                !
 ! R64   R(57,58)                1.0995         estimate D2E/DX2                !
 ! R65   R(57,59)                1.3945         estimate D2E/DX2                !
 ! R66   R(59,60)                1.0988         estimate D2E/DX2                !
 ! R67   R(59,61)                1.3951         estimate D2E/DX2                !
 ! R68   R(61,62)                1.0994         estimate D2E/DX2                !
 ! R69   R(61,63)                1.3939         estimate D2E/DX2                !
 ! R70   R(63,64)                1.1005         estimate D2E/DX2                !
 ! A1    A(1,2,3)              120.0591         estimate D2E/DX2                !
 ! A2    A(1,2,10)             120.0222         estimate D2E/DX2                !
 ! A3    A(3,2,10)             119.9188         estimate D2E/DX2                !
 ! A4    A(2,3,4)              120.0262         estimate D2E/DX2                !
 ! A5    A(2,3,5)              120.1412         estimate D2E/DX2                !
 ! A6    A(4,3,5)              119.8327         estimate D2E/DX2                !
 ! A7    A(3,5,6)              120.0454         estimate D2E/DX2                !
 ! A8    A(3,5,7)              120.1592         estimate D2E/DX2                !
 ! A9    A(6,5,7)              119.7954         estimate D2E/DX2                !
 ! A10   A(5,7,8)              119.4588         estimate D2E/DX2                !
 ! A11   A(5,7,12)             120.2362         estimate D2E/DX2                !
 ! A12   A(8,7,12)             120.2929         estimate D2E/DX2                !
 ! A13   A(7,8,9)              119.7211         estimate D2E/DX2                !
 ! A14   A(7,8,10)             120.1765         estimate D2E/DX2                !
 ! A15   A(9,8,10)             120.1024         estimate D2E/DX2                !
 ! A16   A(2,10,8)             120.1454         estimate D2E/DX2                !
 ! A17   A(2,10,11)            120.0906         estimate D2E/DX2                !
 ! A18   A(8,10,11)            119.764          estimate D2E/DX2                !
 ! A19   A(7,12,13)            120.0056         estimate D2E/DX2                !
 ! A20   A(7,12,52)            120.0299         estimate D2E/DX2                !
 ! A21   A(13,12,52)           119.9645         estimate D2E/DX2                !
 ! A22   A(12,13,14)           120.6301         estimate D2E/DX2                !
 ! A23   A(12,13,15)           120.9423         estimate D2E/DX2                !
 ! A24   A(14,13,15)           118.4277         estimate D2E/DX2                !
 ! A25   A(13,15,16)           118.4277         estimate D2E/DX2                !
 ! A26   A(13,15,17)           120.9064         estimate D2E/DX2                !
 ! A27   A(16,15,17)           120.6659         estimate D2E/DX2                !
 ! A28   A(15,17,18)           120.0088         estimate D2E/DX2                !
 ! A29   A(15,17,29)           120.0003         estimate D2E/DX2                !
 ! A30   A(18,17,29)           119.9909         estimate D2E/DX2                !
 ! A31   A(17,18,19)           120.2361         estimate D2E/DX2                !
 ! A32   A(17,18,27)           120.2718         estimate D2E/DX2                !
 ! A33   A(19,18,27)           119.4781         estimate D2E/DX2                !
 ! A34   A(18,19,20)           119.7957         estimate D2E/DX2                !
 ! A35   A(18,19,21)           120.1603         estimate D2E/DX2                !
 ! A36   A(20,19,21)           120.0438         estimate D2E/DX2                !
 ! A37   A(19,21,22)           119.836          estimate D2E/DX2                !
 ! A38   A(19,21,23)           120.1768         estimate D2E/DX2                !
 ! A39   A(22,21,23)           119.9872         estimate D2E/DX2                !
 ! A40   A(21,23,24)           120.0946         estimate D2E/DX2                !
 ! A41   A(21,23,25)           119.8669         estimate D2E/DX2                !
 ! A42   A(24,23,25)           120.0385         estimate D2E/DX2                !
 ! A43   A(23,25,26)           120.0467         estimate D2E/DX2                !
 ! A44   A(23,25,27)           120.1618         estimate D2E/DX2                !
 ! A45   A(26,25,27)           119.7915         estimate D2E/DX2                !
 ! A46   A(18,27,25)           120.1559         estimate D2E/DX2                !
 ! A47   A(18,27,28)           119.7173         estimate D2E/DX2                !
 ! A48   A(25,27,28)           120.1265         estimate D2E/DX2                !
 ! A49   A(17,29,30)           121.7766         estimate D2E/DX2                !
 ! A50   A(17,29,52)           119.0933         estimate D2E/DX2                !
 ! A51   A(30,29,52)           119.1302         estimate D2E/DX2                !
 ! A52   A(29,30,31)           119.1821         estimate D2E/DX2                !
 ! A53   A(29,30,32)           121.7595         estimate D2E/DX2                !
 ! A54   A(31,30,32)           119.0583         estimate D2E/DX2                !
 ! A55   A(30,32,33)           121.7965         estimate D2E/DX2                !
 ! A56   A(30,32,50)           119.1103         estimate D2E/DX2                !
 ! A57   A(33,32,50)           119.0933         estimate D2E/DX2                !
 ! A58   A(32,33,34)           120.0299         estimate D2E/DX2                !
 ! A59   A(32,33,45)           119.943          estimate D2E/DX2                !
 ! A60   A(34,33,45)           120.0271         estimate D2E/DX2                !
 ! A61   A(33,34,35)           120.2375         estimate D2E/DX2                !
 ! A62   A(33,34,43)           120.2704         estimate D2E/DX2                !
 ! A63   A(35,34,43)           119.4808         estimate D2E/DX2                !
 ! A64   A(34,35,36)           119.7485         estimate D2E/DX2                !
 ! A65   A(34,35,37)           120.1643         estimate D2E/DX2                !
 ! A66   A(36,35,37)           120.0872         estimate D2E/DX2                !
 ! A67   A(35,37,38)           119.8359         estimate D2E/DX2                !
 ! A68   A(35,37,39)           120.1346         estimate D2E/DX2                !
 ! A69   A(38,37,39)           120.0293         estimate D2E/DX2                !
 ! A70   A(37,39,40)           120.0524         estimate D2E/DX2                !
 ! A71   A(37,39,41)           119.9422         estimate D2E/DX2                !
 ! A72   A(40,39,41)           120.0054         estimate D2E/DX2                !
 ! A73   A(39,41,42)           120.0865         estimate D2E/DX2                !
 ! A74   A(39,41,43)           120.1287         estimate D2E/DX2                !
 ! A75   A(42,41,43)           119.7846         estimate D2E/DX2                !
 ! A76   A(34,43,41)           120.1493         estimate D2E/DX2                !
 ! A77   A(34,43,44)           119.7609         estimate D2E/DX2                !
 ! A78   A(41,43,44)           120.0898         estimate D2E/DX2                !
 ! A79   A(33,45,46)           120.6086         estimate D2E/DX2                !
 ! A80   A(33,45,47)           120.9638         estimate D2E/DX2                !
 ! A81   A(46,45,47)           118.4276         estimate D2E/DX2                !
 ! A82   A(45,47,48)           118.4277         estimate D2E/DX2                !
 ! A83   A(45,47,49)           120.9064         estimate D2E/DX2                !
 ! A84   A(48,47,49)           120.6659         estimate D2E/DX2                !
 ! A85   A(47,49,50)           119.981          estimate D2E/DX2                !
 ! A86   A(47,49,54)           119.9698         estimate D2E/DX2                !
 ! A87   A(50,49,54)           120.0492         estimate D2E/DX2                !
 ! A88   A(32,50,49)           119.1126         estimate D2E/DX2                !
 ! A89   A(32,50,51)           119.1102         estimate D2E/DX2                !
 ! A90   A(49,50,51)           121.7771         estimate D2E/DX2                !
 ! A91   A(50,51,52)           121.7596         estimate D2E/DX2                !
 ! A92   A(50,51,53)           119.1103         estimate D2E/DX2                !
 ! A93   A(52,51,53)           119.1302         estimate D2E/DX2                !
 ! A94   A(12,52,29)           119.0933         estimate D2E/DX2                !
 ! A95   A(12,52,51)           121.7765         estimate D2E/DX2                !
 ! A96   A(29,52,51)           119.1302         estimate D2E/DX2                !
 ! A97   A(49,54,55)           120.2335         estimate D2E/DX2                !
 ! A98   A(49,54,63)           120.2748         estimate D2E/DX2                !
 ! A99   A(55,54,63)           119.4795         estimate D2E/DX2                !
 ! A100  A(54,55,56)           119.7595         estimate D2E/DX2                !
 ! A101  A(54,55,57)           120.116          estimate D2E/DX2                !
 ! A102  A(56,55,57)           120.1244         estimate D2E/DX2                !
 ! A103  A(55,57,58)           119.7488         estimate D2E/DX2                !
 ! A104  A(55,57,59)           120.2221         estimate D2E/DX2                !
 ! A105  A(58,57,59)           120.0291         estimate D2E/DX2                !
 ! A106  A(57,59,60)           120.0577         estimate D2E/DX2                !
 ! A107  A(57,59,61)           119.8436         estimate D2E/DX2                !
 ! A108  A(60,59,61)           120.0987         estimate D2E/DX2                !
 ! A109  A(59,61,62)           119.9938         estimate D2E/DX2                !
 ! A110  A(59,61,63)           120.1803         estimate D2E/DX2                !
 ! A111  A(62,61,63)           119.8259         estimate D2E/DX2                !
 ! A112  A(54,63,61)           120.1579         estimate D2E/DX2                !
 ! A113  A(54,63,64)           119.7532         estimate D2E/DX2                !
 ! A114  A(61,63,64)           120.0889         estimate D2E/DX2                !
 ! D1    D(1,2,3,4)              0.1014         estimate D2E/DX2                !
 ! D2    D(1,2,3,5)           -179.8463         estimate D2E/DX2                !
 ! D3    D(10,2,3,4)          -179.9134         estimate D2E/DX2                !
 ! D4    D(10,2,3,5)             0.1389         estimate D2E/DX2                !
 ! D5    D(1,2,10,8)           179.7989         estimate D2E/DX2                !
 ! D6    D(1,2,10,11)           -0.2072         estimate D2E/DX2                !
 ! D7    D(3,2,10,8)            -0.1863         estimate D2E/DX2                !
 ! D8    D(3,2,10,11)          179.8075         estimate D2E/DX2                !
 ! D9    D(2,3,5,6)            179.9854         estimate D2E/DX2                !
 ! D10   D(2,3,5,7)             -0.0307         estimate D2E/DX2                !
 ! D11   D(4,3,5,6)              0.0376         estimate D2E/DX2                !
 ! D12   D(4,3,5,7)           -179.9785         estimate D2E/DX2                !
 ! D13   D(3,5,7,8)             -0.0302         estimate D2E/DX2                !
 ! D14   D(3,5,7,12)           178.7048         estimate D2E/DX2                !
 ! D15   D(6,5,7,8)            179.9537         estimate D2E/DX2                !
 ! D16   D(6,5,7,12)            -1.3113         estimate D2E/DX2                !
 ! D17   D(5,7,8,9)           -179.983          estimate D2E/DX2                !
 ! D18   D(5,7,8,10)            -0.0171         estimate D2E/DX2                !
 ! D19   D(12,7,8,9)             1.2828         estimate D2E/DX2                !
 ! D20   D(12,7,8,10)         -178.7514         estimate D2E/DX2                !
 ! D21   D(5,7,12,13)          -89.4094         estimate D2E/DX2                !
 ! D22   D(5,7,12,52)           90.5906         estimate D2E/DX2                !
 ! D23   D(8,7,12,13)           89.315          estimate D2E/DX2                !
 ! D24   D(8,7,12,52)          -90.685          estimate D2E/DX2                !
 ! D25   D(7,8,10,2)             0.1256         estimate D2E/DX2                !
 ! D26   D(7,8,10,11)         -179.8683         estimate D2E/DX2                !
 ! D27   D(9,8,10,2)          -179.9087         estimate D2E/DX2                !
 ! D28   D(9,8,10,11)            0.0974         estimate D2E/DX2                !
 ! D29   D(7,12,13,14)           0.0605         estimate D2E/DX2                !
 ! D30   D(7,12,13,15)         180.0            estimate D2E/DX2                !
 ! D31   D(52,12,13,14)       -179.9395         estimate D2E/DX2                !
 ! D32   D(52,12,13,15)          0.0            estimate D2E/DX2                !
 ! D33   D(7,12,52,29)         180.0            estimate D2E/DX2                !
 ! D34   D(7,12,52,51)          -0.0482         estimate D2E/DX2                !
 ! D35   D(13,12,52,29)          0.0            estimate D2E/DX2                !
 ! D36   D(13,12,52,51)        179.9518         estimate D2E/DX2                !
 ! D37   D(12,13,15,16)        180.0            estimate D2E/DX2                !
 ! D38   D(12,13,15,17)          0.0            estimate D2E/DX2                !
 ! D39   D(14,13,15,16)         -0.0592         estimate D2E/DX2                !
 ! D40   D(14,13,15,17)        179.9408         estimate D2E/DX2                !
 ! D41   D(13,15,17,18)        180.0            estimate D2E/DX2                !
 ! D42   D(13,15,17,29)          0.0            estimate D2E/DX2                !
 ! D43   D(16,15,17,18)          0.0            estimate D2E/DX2                !
 ! D44   D(16,15,17,29)        180.0            estimate D2E/DX2                !
 ! D45   D(15,17,18,19)         89.3393         estimate D2E/DX2                !
 ! D46   D(15,17,18,27)        -89.2927         estimate D2E/DX2                !
 ! D47   D(29,17,18,19)        -90.6607         estimate D2E/DX2                !
 ! D48   D(29,17,18,27)         90.7073         estimate D2E/DX2                !
 ! D49   D(15,17,29,30)        180.0            estimate D2E/DX2                !
 ! D50   D(15,17,29,52)          0.0            estimate D2E/DX2                !
 ! D51   D(18,17,29,30)          0.0            estimate D2E/DX2                !
 ! D52   D(18,17,29,52)        180.0            estimate D2E/DX2                !
 ! D53   D(17,18,19,20)          1.3437         estimate D2E/DX2                !
 ! D54   D(17,18,19,21)       -178.5171         estimate D2E/DX2                !
 ! D55   D(27,18,19,20)        179.9866         estimate D2E/DX2                !
 ! D56   D(27,18,19,21)          0.1259         estimate D2E/DX2                !
 ! D57   D(17,18,27,25)        178.564          estimate D2E/DX2                !
 ! D58   D(17,18,27,28)         -1.2677         estimate D2E/DX2                !
 ! D59   D(19,18,27,25)         -0.0785         estimate D2E/DX2                !
 ! D60   D(19,18,27,28)       -179.9101         estimate D2E/DX2                !
 ! D61   D(18,19,21,22)        179.9048         estimate D2E/DX2                !
 ! D62   D(18,19,21,23)         -0.067          estimate D2E/DX2                !
 ! D63   D(20,19,21,22)          0.0444         estimate D2E/DX2                !
 ! D64   D(20,19,21,23)       -179.9274         estimate D2E/DX2                !
 ! D65   D(19,21,23,24)        179.9865         estimate D2E/DX2                !
 ! D66   D(19,21,23,25)         -0.0402         estimate D2E/DX2                !
 ! D67   D(22,21,23,24)          0.0148         estimate D2E/DX2                !
 ! D68   D(22,21,23,25)        179.9881         estimate D2E/DX2                !
 ! D69   D(21,23,25,26)       -179.8696         estimate D2E/DX2                !
 ! D70   D(21,23,25,27)          0.0877         estimate D2E/DX2                !
 ! D71   D(24,23,25,26)          0.1038         estimate D2E/DX2                !
 ! D72   D(24,23,25,27)       -179.939          estimate D2E/DX2                !
 ! D73   D(23,25,27,18)         -0.028          estimate D2E/DX2                !
 ! D74   D(23,25,27,28)        179.8029         estimate D2E/DX2                !
 ! D75   D(26,25,27,18)        179.9294         estimate D2E/DX2                !
 ! D76   D(26,25,27,28)         -0.2397         estimate D2E/DX2                !
 ! D77   D(17,29,30,31)          0.0            estimate D2E/DX2                !
 ! D78   D(17,29,30,32)        179.9519         estimate D2E/DX2                !
 ! D79   D(52,29,30,31)        180.0            estimate D2E/DX2                !
 ! D80   D(52,29,30,32)         -0.0481         estimate D2E/DX2                !
 ! D81   D(17,29,52,12)          0.0            estimate D2E/DX2                !
 ! D82   D(17,29,52,51)       -179.9531         estimate D2E/DX2                !
 ! D83   D(30,29,52,12)        180.0            estimate D2E/DX2                !
 ! D84   D(30,29,52,51)          0.0469         estimate D2E/DX2                !
 ! D85   D(29,30,32,33)        180.0            estimate D2E/DX2                !
 ! D86   D(29,30,32,50)          0.0023         estimate D2E/DX2                !
 ! D87   D(31,30,32,33)         -0.0481         estimate D2E/DX2                !
 ! D88   D(31,30,32,50)        179.9542         estimate D2E/DX2                !
 ! D89   D(30,32,33,34)          0.0482         estimate D2E/DX2                !
 ! D90   D(30,32,33,45)        179.9999         estimate D2E/DX2                !
 ! D91   D(50,32,33,34)       -179.9541         estimate D2E/DX2                !
 ! D92   D(50,32,33,45)         -0.0024         estimate D2E/DX2                !
 ! D93   D(30,32,50,49)        179.9987         estimate D2E/DX2                !
 ! D94   D(30,32,50,51)          0.0446         estimate D2E/DX2                !
 ! D95   D(33,32,50,49)          0.001          estimate D2E/DX2                !
 ! D96   D(33,32,50,51)       -179.9531         estimate D2E/DX2                !
 ! D97   D(32,33,34,35)         90.7799         estimate D2E/DX2                !
 ! D98   D(32,33,34,43)        -90.4478         estimate D2E/DX2                !
 ! D99   D(45,33,34,35)        -89.1718         estimate D2E/DX2                !
 ! D100  D(45,33,34,43)         89.6005         estimate D2E/DX2                !
 ! D101  D(32,33,45,46)       -179.9402         estimate D2E/DX2                !
 ! D102  D(32,33,45,47)          0.0022         estimate D2E/DX2                !
 ! D103  D(34,33,45,46)          0.0116         estimate D2E/DX2                !
 ! D104  D(34,33,45,47)        179.9539         estimate D2E/DX2                !
 ! D105  D(33,34,35,36)         -1.3781         estimate D2E/DX2                !
 ! D106  D(33,34,35,37)        178.657          estimate D2E/DX2                !
 ! D107  D(43,34,35,36)        179.84           estimate D2E/DX2                !
 ! D108  D(43,34,35,37)         -0.125          estimate D2E/DX2                !
 ! D109  D(33,34,43,41)       -178.6573         estimate D2E/DX2                !
 ! D110  D(33,34,43,44)          1.2883         estimate D2E/DX2                !
 ! D111  D(35,34,43,41)          0.1243         estimate D2E/DX2                !
 ! D112  D(35,34,43,44)       -179.9302         estimate D2E/DX2                !
 ! D113  D(34,35,37,38)        179.9528         estimate D2E/DX2                !
 ! D114  D(34,35,37,39)          0.0653         estimate D2E/DX2                !
 ! D115  D(36,35,37,38)         -0.0121         estimate D2E/DX2                !
 ! D116  D(36,35,37,39)       -179.8996         estimate D2E/DX2                !
 ! D117  D(35,37,39,40)        179.9855         estimate D2E/DX2                !
 ! D118  D(35,37,39,41)         -0.0039         estimate D2E/DX2                !
 ! D119  D(38,37,39,40)          0.0983         estimate D2E/DX2                !
 ! D120  D(38,37,39,41)       -179.8911         estimate D2E/DX2                !
 ! D121  D(37,39,41,42)        179.8642         estimate D2E/DX2                !
 ! D122  D(37,39,41,43)          0.0032         estimate D2E/DX2                !
 ! D123  D(40,39,41,42)         -0.1252         estimate D2E/DX2                !
 ! D124  D(40,39,41,43)       -179.9862         estimate D2E/DX2                !
 ! D125  D(39,41,43,34)         -0.0639         estimate D2E/DX2                !
 ! D126  D(39,41,43,44)        179.9908         estimate D2E/DX2                !
 ! D127  D(42,41,43,34)       -179.9253         estimate D2E/DX2                !
 ! D128  D(42,41,43,44)          0.1294         estimate D2E/DX2                !
 ! D129  D(33,45,47,48)        179.9536         estimate D2E/DX2                !
 ! D130  D(33,45,47,49)         -0.0004         estimate D2E/DX2                !
 ! D131  D(46,45,47,48)         -0.1028         estimate D2E/DX2                !
 ! D132  D(46,45,47,49)        179.9431         estimate D2E/DX2                !
 ! D133  D(45,47,49,50)         -0.001          estimate D2E/DX2                !
 ! D134  D(45,47,49,54)        179.908          estimate D2E/DX2                !
 ! D135  D(48,47,49,50)       -179.954          estimate D2E/DX2                !
 ! D136  D(48,47,49,54)         -0.045          estimate D2E/DX2                !
 ! D137  D(47,49,50,32)          0.0007         estimate D2E/DX2                !
 ! D138  D(47,49,50,51)        179.9535         estimate D2E/DX2                !
 ! D139  D(54,49,50,32)       -179.9082         estimate D2E/DX2                !
 ! D140  D(54,49,50,51)          0.0446         estimate D2E/DX2                !
 ! D141  D(47,49,54,55)         89.291          estimate D2E/DX2                !
 ! D142  D(47,49,54,63)        -89.434          estimate D2E/DX2                !
 ! D143  D(50,49,54,55)        -90.8001         estimate D2E/DX2                !
 ! D144  D(50,49,54,63)         90.4749         estimate D2E/DX2                !
 ! D145  D(32,50,51,52)         -0.0458         estimate D2E/DX2                !
 ! D146  D(32,50,51,53)        179.9541         estimate D2E/DX2                !
 ! D147  D(49,50,51,52)       -179.9987         estimate D2E/DX2                !
 ! D148  D(49,50,51,53)          0.0013         estimate D2E/DX2                !
 ! D149  D(50,51,52,12)       -179.9518         estimate D2E/DX2                !
 ! D150  D(50,51,52,29)          0.0            estimate D2E/DX2                !
 ! D151  D(53,51,52,12)          0.0482         estimate D2E/DX2                !
 ! D152  D(53,51,52,29)        180.0            estimate D2E/DX2                !
 ! D153  D(49,54,55,56)          1.3312         estimate D2E/DX2                !
 ! D154  D(49,54,55,57)       -178.7046         estimate D2E/DX2                !
 ! D155  D(63,54,55,56)       -179.9336         estimate D2E/DX2                !
 ! D156  D(63,54,55,57)          0.0306         estimate D2E/DX2                !
 ! D157  D(49,54,63,61)        178.7045         estimate D2E/DX2                !
 ! D158  D(49,54,63,64)         -1.2024         estimate D2E/DX2                !
 ! D159  D(55,54,63,61)         -0.0301         estimate D2E/DX2                !
 ! D160  D(55,54,63,64)       -179.937          estimate D2E/DX2                !
 ! D161  D(54,55,57,58)       -179.8215         estimate D2E/DX2                !
 ! D162  D(54,55,57,59)          0.1233         estimate D2E/DX2                !
 ! D163  D(56,55,57,58)          0.1426         estimate D2E/DX2                !
 ! D164  D(56,55,57,59)       -179.9126         estimate D2E/DX2                !
 ! D165  D(55,57,59,60)        179.7838         estimate D2E/DX2                !
 ! D166  D(55,57,59,61)         -0.2773         estimate D2E/DX2                !
 ! D167  D(58,57,59,60)         -0.2716         estimate D2E/DX2                !
 ! D168  D(58,57,59,61)        179.6674         estimate D2E/DX2                !
 ! D169  D(57,59,61,62)       -179.6751         estimate D2E/DX2                !
 ! D170  D(57,59,61,63)          0.2776         estimate D2E/DX2                !
 ! D171  D(60,59,61,62)          0.2638         estimate D2E/DX2                !
 ! D172  D(60,59,61,63)       -179.7835         estimate D2E/DX2                !
 ! D173  D(59,61,63,54)         -0.1241         estimate D2E/DX2                !
 ! D174  D(59,61,63,64)        179.7824         estimate D2E/DX2                !
 ! D175  D(62,61,63,54)        179.8286         estimate D2E/DX2                !
 ! D176  D(62,61,63,64)         -0.2648         estimate D2E/DX2                !
 --------------------------------------------------------------------------------
 Trust Radius=3.00D-01 FncErr=1.00D-07 GrdErr=1.00D-06 EigMax=2.50D+02 EigMin=1.00D-04
 Number of steps in this run=    370 maximum allowed number of steps=    384.
 GradGradGradGradGradGradGradGradGradGradGradGradGradGradGradGradGradGrad

 Stoichiometry    C38H26
 Framework group  C1[X(C38H26)]
 Deg. of freedom   186
 Full point group                 C1      NOp   1
 Largest Abelian subgroup         C1      NOp   1
 Largest concise Abelian subgroup C1      NOp   1
                         Standard orientation:                         
 ---------------------------------------------------------------------
 Center     Atomic      Atomic             Coordinates (Angstroms)
 Number     Number       Type             X           Y           Z
 ---------------------------------------------------------------------
      1          1           0        6.777600    2.648142   -0.001042
      2          6           0        5.678607    2.605978   -0.001063
      3          6           0        4.980657    2.578303   -1.208077
      4          1           0        5.528690    2.596934   -2.161065
      5          6           0        3.587664    2.528094   -1.210106
      6          1           0        3.038704    2.506561   -2.163117
      7          6           0        2.882622    2.504561   -0.000122
      8          6           0        3.588572    2.531238    1.208892
      9          1           0        3.038538    2.512607    2.162880
     10          6           0        4.981565    2.580445    1.205922
     11          1           0        5.529526    2.598978    2.159934
     12          6           0        1.414625    2.480342   -0.000167
     13          6           0        0.709450    3.656236   -0.000750
     14          1           0        1.233305    4.624314   -0.002188
     15          6           0       -0.711550    3.656024   -0.000804
     16          1           0       -1.235695    4.623945   -0.001281
     17          6           0       -1.415375    2.479919   -0.000274
     18          6           0       -2.883378    2.502699   -0.000341
     19          6           0       -3.588336    2.527022   -1.210379
     20          1           0       -3.039296    2.506653   -2.163349
     21          6           0       -4.981344    2.579814   -1.208457
     22          1           0       -5.529310    2.600282   -2.161488
     23          6           0       -5.680394    2.607281   -0.001497
     24          1           0       -6.778400    2.649117   -0.001559
     25          6           0       -4.982436    2.580957    1.206542
     26          1           0       -5.530475    2.600325    2.159512
     27          6           0       -3.589428    2.529166    1.209620
     28          1           0       -3.039462    2.511699    2.162649
     29          6           0       -0.715187    1.222023    0.000347
     30          6           0       -1.396004   -0.000078    0.000900
     31          1           0       -2.499004   -0.001243    0.000858
     32          6           0       -0.714821   -1.222977    0.000504
     33          6           0       -1.414633   -2.481081    0.001072
     34          6           0       -2.882630   -2.505301    0.001028
     35          6           0       -3.587579   -2.533978   -1.208986
     36          1           0       -3.037546   -2.515347   -2.161973
     37          6           0       -4.980572   -2.585185   -1.207014
     38          1           0       -5.528532   -2.606718   -2.160025
     39          6           0       -5.678614   -2.606719   -0.000031
     40          1           0       -6.777609   -2.646883   -0.000054
     41          6           0       -4.981665   -2.577043    1.207982
     42          1           0       -5.529699   -2.591674    2.160968
     43          6           0       -3.588673   -2.525834    1.211011
     44          1           0       -3.039712   -2.502301    2.164021
     45          6           0       -0.709458   -3.655976    0.000655
     46          1           0       -1.233313   -4.624055    0.000093
     47          6           0        0.711542   -3.655764   -0.000291
     48          1           0        1.235687   -4.623686    0.000187
     49          6           0        1.415367   -2.479659   -0.000820
     50          6           0        0.715179   -1.222764   -0.000442
     51          6           0        1.395996    0.000338    0.000006
     52          6           0        0.714813    1.222237    0.000402
     53          1           0        2.499996    0.000503    0.000048
     54          6           0        2.883370   -2.503439    0.000247
     55          6           0        3.589420   -2.530906   -1.209714
     56          1           0        3.040454   -2.512439   -2.162743
     57          6           0        4.982428   -2.580696   -1.205637
     58          1           0        5.530467   -2.599065   -2.158607
     59          6           0        5.680385   -2.606021    0.001402
     60          1           0        6.778392   -2.648857    0.001464
     61          6           0        4.981335   -2.575555    1.208361
     62          1           0        5.529301   -2.590022    2.161389
     63          6           0        3.588327   -2.525762    1.210284
     64          1           0        3.038288   -2.505393    2.163254
 ---------------------------------------------------------------------
 Rotational constants (GHZ):           0.1458948           0.0761326           0.0538178
 Standard basis: 6-31+G(d,p) (6D, 7F)
 There are   852 symmetry adapted cartesian basis functions of A   symmetry.
 There are   852 symmetry adapted basis functions of A   symmetry.
   852 basis functions,  1398 primitive gaussians,   852 cartesian basis functions
   127 alpha electrons      127 beta electrons
       nuclear repulsion energy      3727.0140045622 Hartrees.
 NAtoms=   64 NActive=   64 NUniq=   64 SFac= 1.00D+00 NAtFMM=   60 NAOKFM=T Big=T
 Integral buffers will be    131072 words long.
 Raffenetti 2 integral format.
 Two-electron integral symmetry is turned on.
 One-electron integrals computed using PRISM.
 NBasis=   852 RedAO= T EigKep=  1.00D-06  NBF=   852
 NBsUse=   837 1.00D-06 EigRej=  9.83D-07 NBFU=   837
 ExpMin= 4.38D-02 ExpMax= 3.05D+03 ExpMxC= 4.57D+02 IAcc=3 IRadAn=         5 AccDes= 0.00D+00
 Harris functional with IExCor=  402 and IRadAn=       5 diagonalized for initial guess.
 HarFok:  IExCor=  402 AccDes= 0.00D+00 IRadAn=         5 IDoV= 1 UseB2=F ITyADJ=14
 ICtDFT=  3500011 ScaDFX=  1.000000  1.000000  1.000000  1.000000
 FoFCou: FMM=F IPFlag=           0 FMFlag=      100000 FMFlg1=        2001
         NFxFlg=           0 DoJE=T BraDBF=F KetDBF=T FulRan=T
         wScrn=  0.000000 ICntrl=       500 IOpCl=  0 I1Cent=   200000004 NGrid=           0
         NMat0=    1 NMatS0=      1 NMatT0=    0 NMatD0=    1 NMtDS0=    0 NMtDT0=    0
 Petite list used in FoFCou.
 Requested convergence on RMS density matrix=1.00D-08 within 128 cycles.
 Requested convergence on MAX density matrix=1.00D-06.
 Requested convergence on             energy=1.00D-06.
 No special actions if energy rises.
 SCF Done:  E(RB3LYP) =  -1463.82078465     A.U. after   15 cycles
            NFock= 15  Conv=0.40D-08     -V/T= 2.0097

 **********************************************************************

            Population analysis using the SCF Density.

 **********************************************************************

 Orbital symmetries:
       Occupied  (A) (A) (A) (A) (A) (A) (A) (A) (A) (A) (A) (A)
                 (A) (A) (A) (A) (A) (A) (A) (A) (A) (A) (A) (A)
                 (A) (A) (A) (A) (A) (A) (A) (A) (A) (A) (A) (A)
                 (A) (A) (A) (A) (A) (A) (A) (A) (A) (A) (A) (A)
                 (A) (A) (A) (A) (A) (A) (A) (A) (A) (A) (A) (A)
                 (A) (A) (A) (A) (A) (A) (A) (A) (A) (A) (A) (A)
                 (A) (A) (A) (A) (A) (A) (A) (A) (A) (A) (A) (A)
                 (A) (A) (A) (A) (A) (A) (A) (A) (A) (A) (A) (A)
                 (A) (A) (A) (A) (A) (A) (A) (A) (A) (A) (A) (A)
                 (A) (A) (A) (A) (A) (A) (A) (A) (A) (A) (A) (A)
                 (A) (A) (A) (A) (A) (A) (A)
       Virtual   (A) (A) (A) (A) (A) (A) (A) (A) (A) (A) (A) (A)
                 (A) (A) (A) (A) (A) (A) (A) (A) (A) (A) (A) (A)
                 (A) (A) (A) (A) (A) (A) (A) (A) (A) (A) (A) (A)
                 (A) (A) (A) (A) (A) (A) (A) (A) (A) (A) (A) (A)
                 (A) (A) (A) (A) (A) (A) (A) (A) (A) (A) (A) (A)
                 (A) (A) (A) (A) (A) (A) (A) (A) (A) (A) (A) (A)
                 (A) (A) (A) (A) (A) (A) (A) (A) (A) (A) (A) (A)
                 (A) (A) (A) (A) (A) (A) (A) (A) (A) (A) (A) (A)
                 (A) (A) (A) (A) (A) (A) (A) (A) (A) (A) (A) (A)
                 (A) (A) (A) (A) (A) (A) (A) (A) (A) (A) (A) (A)
                 (A) (A) (A) (A) (A) (A) (A) (A) (A) (A) (A) (A)
                 (A) (A) (A) (A) (A) (A) (A) (A) (A) (A) (A) (A)
                 (A) (A) (A) (A) (A) (A) (A) (A) (A) (A) (A) (A)
                 (A) (A) (A) (A) (A) (A) (A) (A) (A) (A) (A) (A)
                 (A) (A) (A) (A) (A) (A) (A) (A) (A) (A) (A) (A)
                 (A) (A) (A) (A) (A) (A) (A) (A) (A) (A) (A) (A)
                 (A) (A) (A) (A) (A) (A) (A) (A) (A) (A) (A) (A)
                 (A) (A) (A) (A) (A) (A) (A) (A) (A) (A) (A) (A)
                 (A) (A) (A) (A) (A) (A) (A) (A) (A) (A) (A) (A)
                 (A) (A) (A) (A) (A) (A) (A) (A) (A) (A) (A) (A)
                 (A) (A) (A) (A) (A) (A) (A) (A) (A) (A) (A) (A)
                 (A) (A) (A) (A) (A) (A) (A) (A) (A) (A) (A) (A)
                 (A) (A) (A) (A) (A) (A) (A) (A) (A) (A) (A) (A)
                 (A) (A) (A) (A) (A) (A) (A) (A) (A) (A) (A) (A)
                 (A) (A) (A) (A) (A) (A) (A) (A) (A) (A) (A) (A)
                 (A) (A) (A) (A) (A) (A) (A) (A) (A) (A) (A) (A)
                 (A) (A) (A) (A) (A) (A) (A) (A) (A) (A) (A) (A)
                 (A) (A) (A) (A) (A) (A) (A) (A) (A) (A) (A) (A)
                 (A) (A) (A) (A) (A) (A) (A) (A) (A) (A) (A) (A)
                 (A) (A) (A) (A) (A) (A) (A) (A) (A) (A) (A) (A)
                 (A) (A) (A) (A) (A) (A) (A) (A) (A) (A) (A) (A)
                 (A) (A) (A) (A) (A) (A) (A) (A) (A) (A) (A) (A)
                 (A) (A) (A) (A) (A) (A) (A) (A) (A) (A) (A) (A)
                 (A) (A) (A) (A) (A) (A) (A) (A) (A) (A) (A) (A)
                 (A) (A) (A) (A) (A) (A) (A) (A) (A) (A) (A) (A)
                 (A) (A) (A) (A) (A) (A) (A) (A) (A) (A) (A) (A)
                 (A) (A) (A) (A) (A) (A) (A) (A) (A) (A) (A) (A)
                 (A) (A) (A) (A) (A) (A) (A) (A) (A) (A) (A) (A)
                 (A) (A) (A) (A) (A) (A) (A) (A) (A) (A) (A) (A)
                 (A) (A) (A) (A) (A) (A) (A) (A) (A) (A) (A) (A)
                 (A) (A) (A) (A) (A) (A) (A) (A) (A) (A) (A) (A)
                 (A) (A) (A) (A) (A) (A) (A) (A) (A) (A) (A) (A)
                 (A) (A) (A) (A) (A) (A) (A) (A) (A) (A) (A) (A)
                 (A) (A) (A) (A) (A) (A) (A) (A) (A) (A) (A) (A)
                 (A) (A) (A) (A) (A) (A) (A) (A) (A) (A) (A) (A)
                 (A) (A) (A) (A) (A) (A) (A) (A) (A) (A) (A) (A)
                 (A) (A) (A) (A) (A) (A) (A) (A) (A) (A) (A) (A)
                 (A) (A) (A) (A) (A) (A) (A) (A) (A) (A) (A) (A)
                 (A) (A) (A) (A) (A) (A) (A) (A) (A) (A) (A) (A)
                 (A) (A) (A) (A) (A) (A) (A) (A) (A) (A) (A) (A)
                 (A) (A) (A) (A) (A) (A) (A) (A) (A) (A) (A) (A)
                 (A) (A) (A) (A) (A) (A) (A) (A) (A) (A) (A) (A)
                 (A) (A) (A) (A) (A) (A) (A) (A) (A) (A) (A) (A)
                 (A) (A) (A) (A) (A) (A) (A) (A) (A) (A) (A) (A)
                 (A) (A) (A) (A) (A) (A) (A) (A) (A) (A) (A) (A)
                 (A) (A) (A) (A) (A) (A) (A) (A) (A) (A) (A) (A)
                 (A) (A) (A) (A) (A) (A) (A) (A) (A) (A) (A) (A)
                 (A) (A) (A) (A) (A) (A) (A) (A) (A) (A) (A) (A)
                 (A) (A) (A) (A) (A) (A) (A) (A) (A) (A) (A) (A)
                 (A) (A)
 The electronic state is 1-A.
 Alpha  occ. eigenvalues --  -10.20365 -10.20362 -10.20322 -10.20319 -10.20199
 Alpha  occ. eigenvalues --  -10.20199 -10.20198 -10.20193 -10.20145 -10.20141
 Alpha  occ. eigenvalues --  -10.20138 -10.20135 -10.19786 -10.19782 -10.19780
 Alpha  occ. eigenvalues --  -10.19779 -10.19768 -10.19764 -10.19761 -10.19761
 Alpha  occ. eigenvalues --  -10.19682 -10.19679 -10.19675 -10.19673 -10.19636
 Alpha  occ. eigenvalues --  -10.19633 -10.19632 -10.19631 -10.19630 -10.19627
 Alpha  occ. eigenvalues --  -10.19626 -10.19624 -10.19587 -10.19581 -10.19541
 Alpha  occ. eigenvalues --  -10.19534 -10.19289 -10.19280  -0.89638  -0.87829
 Alpha  occ. eigenvalues --   -0.86671  -0.86563  -0.85731  -0.84646  -0.81065
 Alpha  occ. eigenvalues --   -0.80677  -0.79653  -0.75510  -0.75462  -0.74953
 Alpha  occ. eigenvalues --   -0.74951  -0.74942  -0.74941  -0.74493  -0.74485
 Alpha  occ. eigenvalues --   -0.71507  -0.69928  -0.65339  -0.63391  -0.62457
 Alpha  occ. eigenvalues --   -0.62423  -0.60769  -0.60755  -0.60750  -0.60738
 Alpha  occ. eigenvalues --   -0.59806  -0.59702  -0.56890  -0.56516  -0.54413
 Alpha  occ. eigenvalues --   -0.52925  -0.52685  -0.52121  -0.51552  -0.49242
 Alpha  occ. eigenvalues --   -0.49116  -0.46821  -0.46804  -0.46354  -0.46155
 Alpha  occ. eigenvalues --   -0.45953  -0.45821  -0.45674  -0.45652  -0.44722
 Alpha  occ. eigenvalues --   -0.44385  -0.44156  -0.43308  -0.42339  -0.42299
 Alpha  occ. eigenvalues --   -0.42295  -0.42280  -0.41981  -0.41913  -0.41208
 Alpha  occ. eigenvalues --   -0.39998  -0.39886  -0.38804  -0.38433  -0.37233
 Alpha  occ. eigenvalues --   -0.36882  -0.36582  -0.36518  -0.36390  -0.36175
 Alpha  occ. eigenvalues --   -0.35085  -0.35048  -0.34975  -0.34933  -0.34788
 Alpha  occ. eigenvalues --   -0.34244  -0.33938  -0.33222  -0.31726  -0.30813
 Alpha  occ. eigenvalues --   -0.29504  -0.25964  -0.25880  -0.25851  -0.25693
 Alpha  occ. eigenvalues --   -0.25375  -0.25264  -0.25257  -0.25205  -0.25112
 Alpha  occ. eigenvalues --   -0.24636  -0.19773
 Alpha virt. eigenvalues --   -0.07034  -0.03180  -0.01813  -0.01653  -0.01630
 Alpha virt. eigenvalues --   -0.01619  -0.01406  -0.01151  -0.01124  -0.00557
 Alpha virt. eigenvalues --   -0.00458  -0.00004   0.00017   0.00900   0.01397
 Alpha virt. eigenvalues --    0.01476   0.01628   0.01980   0.02277   0.02401
 Alpha virt. eigenvalues --    0.03057   0.03133   0.03236   0.03612   0.03950
 Alpha virt. eigenvalues --    0.03968   0.04399   0.04429   0.04526   0.04867
 Alpha virt. eigenvalues --    0.05303   0.05366   0.05616   0.05875   0.06039
 Alpha virt. eigenvalues --    0.06063   0.06786   0.06815   0.06879   0.07802
 Alpha virt. eigenvalues --    0.08217   0.08344   0.08603   0.08934   0.09239
 Alpha virt. eigenvalues --    0.09300   0.09701   0.09721   0.10338   0.10591
 Alpha virt. eigenvalues --    0.10929   0.11047   0.11296   0.11482   0.11607
 Alpha virt. eigenvalues --    0.12090   0.12388   0.12558   0.12761   0.12924
 Alpha virt. eigenvalues --    0.13018   0.13053   0.13376   0.13984   0.14011
 Alpha virt. eigenvalues --    0.14055   0.14160   0.14230   0.14271   0.14544
 Alpha virt. eigenvalues --    0.14795   0.14895   0.14910   0.15499   0.15671
 Alpha virt. eigenvalues --    0.16167   0.16225   0.16443   0.16464   0.16559
 Alpha virt. eigenvalues --    0.16578   0.16836   0.17098   0.17596   0.17740
 Alpha virt. eigenvalues --    0.18038   0.18285   0.18596   0.18815   0.19009
 Alpha virt. eigenvalues --    0.19307   0.19352   0.19413   0.19615   0.19702
 Alpha virt. eigenvalues --    0.19714   0.19735   0.20454   0.20466   0.20875
 Alpha virt. eigenvalues --    0.20990   0.20994   0.21138   0.21317   0.21422
 Alpha virt. eigenvalues --    0.21826   0.21909   0.22154   0.22184   0.22229
 Alpha virt. eigenvalues --    0.22542   0.22772   0.22990   0.23132   0.23169
 Alpha virt. eigenvalues --    0.23344   0.23466   0.23700   0.23741   0.23800
 Alpha virt. eigenvalues --    0.24120   0.24169   0.24468   0.24581   0.24638
 Alpha virt. eigenvalues --    0.25027   0.25179   0.25218   0.25236   0.25452
 Alpha virt. eigenvalues --    0.25596   0.25881   0.25952   0.26022   0.26154
 Alpha virt. eigenvalues --    0.26346   0.26632   0.26685   0.27181   0.27392
 Alpha virt. eigenvalues --    0.27862   0.27967   0.28054   0.28263   0.28325
 Alpha virt. eigenvalues --    0.28346   0.28576   0.29109   0.29318   0.30037
 Alpha virt. eigenvalues --    0.30169   0.30214   0.30608   0.30753   0.30958
 Alpha virt. eigenvalues --    0.31009   0.31254   0.31280   0.31313   0.31562
 Alpha virt. eigenvalues --    0.31594   0.31764   0.31770   0.31827   0.32045
 Alpha virt. eigenvalues --    0.32814   0.32899   0.33177   0.33434   0.33756
 Alpha virt. eigenvalues --    0.33943   0.34419   0.34870   0.35001   0.35164
 Alpha virt. eigenvalues --    0.35374   0.35422   0.35436   0.35606   0.35998
 Alpha virt. eigenvalues --    0.36310   0.36331   0.36461   0.36609   0.36632
 Alpha virt. eigenvalues --    0.37268   0.37317   0.37473   0.38085   0.38195
 Alpha virt. eigenvalues --    0.38234   0.38489   0.38706   0.38815   0.41088
 Alpha virt. eigenvalues --    0.41360   0.41417   0.42895   0.42957   0.43674
 Alpha virt. eigenvalues --    0.43890   0.43989   0.44243   0.45151   0.45537
 Alpha virt. eigenvalues --    0.46873   0.48357   0.50111   0.50198   0.50395
 Alpha virt. eigenvalues --    0.52696   0.53720   0.53850   0.54949   0.56175
 Alpha virt. eigenvalues --    0.56476   0.57342   0.57694   0.58977   0.59534
 Alpha virt. eigenvalues --    0.61856   0.61886   0.63134   0.65378   0.67587
 Alpha virt. eigenvalues --    0.67853   0.68517   0.69234   0.69326   0.69379
 Alpha virt. eigenvalues --    0.69997   0.70805   0.71629   0.71812   0.71921
 Alpha virt. eigenvalues --    0.72466   0.72496   0.72952   0.73025   0.73126
 Alpha virt. eigenvalues --    0.73133   0.73699   0.73989   0.74071   0.74315
 Alpha virt. eigenvalues --    0.74567   0.75126   0.75447   0.76011   0.76128
 Alpha virt. eigenvalues --    0.76156   0.76608   0.76941   0.77404   0.78221
 Alpha virt. eigenvalues --    0.78465   0.78501   0.78769   0.78900   0.79897
 Alpha virt. eigenvalues --    0.80488   0.80541   0.80743   0.80854   0.81058
 Alpha virt. eigenvalues --    0.81196   0.81546   0.81686   0.81913   0.82233
 Alpha virt. eigenvalues --    0.82417   0.82480   0.82890   0.83070   0.83630
 Alpha virt. eigenvalues --    0.83817   0.84312   0.84565   0.84644   0.84780
 Alpha virt. eigenvalues --    0.84808   0.85514   0.85549   0.85589   0.86361
 Alpha virt. eigenvalues --    0.86967   0.87314   0.87623   0.87626   0.88136
 Alpha virt. eigenvalues --    0.88210   0.89636   0.89819   0.89892   0.90311
 Alpha virt. eigenvalues --    0.90542   0.90670   0.90986   0.91918   0.92163
 Alpha virt. eigenvalues --    0.92684   0.92739   0.93827   0.93882   0.95044
 Alpha virt. eigenvalues --    0.95261   0.95773   0.96152   0.96223   0.96282
 Alpha virt. eigenvalues --    0.96867   0.97136   0.97470   0.97588   0.97978
 Alpha virt. eigenvalues --    0.98428   0.98825   0.99384   0.99605   1.00353
 Alpha virt. eigenvalues --    1.00455   1.00961   1.00979   1.01194   1.01358
 Alpha virt. eigenvalues --    1.01637   1.02405   1.04054   1.05051   1.06591
 Alpha virt. eigenvalues --    1.08082   1.09544   1.09941   1.10409   1.11756
 Alpha virt. eigenvalues --    1.12503   1.12959   1.13331   1.13548   1.14035
 Alpha virt. eigenvalues --    1.15220   1.16143   1.16557   1.17027   1.17453
 Alpha virt. eigenvalues --    1.18035   1.18477   1.18669   1.18808   1.19254
 Alpha virt. eigenvalues --    1.19264   1.20022   1.20136   1.22261   1.22332
 Alpha virt. eigenvalues --    1.22452   1.22561   1.23175   1.23358   1.23486
 Alpha virt. eigenvalues --    1.23583   1.25420   1.25577   1.25875   1.26140
 Alpha virt. eigenvalues --    1.26398   1.26496   1.26618   1.26863   1.28159
 Alpha virt. eigenvalues --    1.28514   1.28897   1.30499   1.30805   1.31932
 Alpha virt. eigenvalues --    1.32165   1.32378   1.34218   1.34823   1.36031
 Alpha virt. eigenvalues --    1.36351   1.36803   1.38349   1.39051   1.39084
 Alpha virt. eigenvalues --    1.39273   1.39689   1.39775   1.39899   1.40059
 Alpha virt. eigenvalues --    1.40200   1.40928   1.41003   1.41351   1.41549
 Alpha virt. eigenvalues --    1.42123   1.42346   1.42511   1.43249   1.43508
 Alpha virt. eigenvalues --    1.43728   1.43863   1.44583   1.44625   1.44910
 Alpha virt. eigenvalues --    1.45038   1.45253   1.45292   1.47162   1.47219
 Alpha virt. eigenvalues --    1.47834   1.48157   1.48588   1.48636   1.48852
 Alpha virt. eigenvalues --    1.49227   1.54867   1.55169   1.55353   1.56289
 Alpha virt. eigenvalues --    1.60785   1.62963   1.64611   1.65048   1.65627
 Alpha virt. eigenvalues --    1.69428   1.70042   1.70420   1.70609   1.74816
 Alpha virt. eigenvalues --    1.77671   1.80172   1.80602   1.81294   1.81890
 Alpha virt. eigenvalues --    1.82789   1.83221   1.83578   1.83773   1.83789
 Alpha virt. eigenvalues --    1.84043   1.84218   1.84492   1.86010   1.87830
 Alpha virt. eigenvalues --    1.87865   1.88514   1.88526   1.89024   1.90042
 Alpha virt. eigenvalues --    1.90118   1.90247   1.90661   1.90984   1.91374
 Alpha virt. eigenvalues --    1.91576   1.91581   1.92135   1.93059   1.94219
 Alpha virt. eigenvalues --    1.94296   1.94600   1.94651   1.95315   1.95603
 Alpha virt. eigenvalues --    1.95923   1.96100   1.96960   1.97472   1.97847
 Alpha virt. eigenvalues --    1.98044   1.98116   1.98859   1.98866   1.99872
 Alpha virt. eigenvalues --    2.00900   2.01202   2.01273   2.01973   2.01976
 Alpha virt. eigenvalues --    2.02031   2.02217   2.03158   2.03690   2.04226
 Alpha virt. eigenvalues --    2.04630   2.04977   2.05080   2.05920   2.06276
 Alpha virt. eigenvalues --    2.06315   2.06804   2.09372   2.09635   2.09711
 Alpha virt. eigenvalues --    2.12160   2.13066   2.14088   2.14519   2.15540
 Alpha virt. eigenvalues --    2.16296   2.19145   2.19486   2.21152   2.22829
 Alpha virt. eigenvalues --    2.23930   2.24082   2.24110   2.25175   2.25690
 Alpha virt. eigenvalues --    2.25938   2.27646   2.27719   2.28084   2.29527
 Alpha virt. eigenvalues --    2.31612   2.32544   2.32948   2.33646   2.33721
 Alpha virt. eigenvalues --    2.33852   2.34591   2.34865   2.36144   2.36546
 Alpha virt. eigenvalues --    2.36875   2.37944   2.38009   2.38213   2.38257
 Alpha virt. eigenvalues --    2.38312   2.38352   2.38969   2.39067   2.39177
 Alpha virt. eigenvalues --    2.39912   2.40152   2.40270   2.40335   2.40858
 Alpha virt. eigenvalues --    2.41418   2.43427   2.44496   2.44790   2.45725
 Alpha virt. eigenvalues --    2.45863   2.46104   2.46653   2.46762   2.46932
 Alpha virt. eigenvalues --    2.47182   2.47317   2.48085   2.48287   2.49421
 Alpha virt. eigenvalues --    2.49481   2.51250   2.51868   2.52676   2.52760
 Alpha virt. eigenvalues --    2.52864   2.53388   2.53501   2.54486   2.54597
 Alpha virt. eigenvalues --    2.54658   2.54999   2.55310   2.55594   2.55832
 Alpha virt. eigenvalues --    2.56163   2.56762   2.57465   2.57767   2.57981
 Alpha virt. eigenvalues --    2.58004   2.58182   2.58591   2.59171   2.60416
 Alpha virt. eigenvalues --    2.61158   2.61850   2.62728   2.64549   2.65242
 Alpha virt. eigenvalues --    2.65441   2.65594   2.65689   2.66280   2.66574
 Alpha virt. eigenvalues --    2.68721   2.68939   2.69153   2.69631   2.70385
 Alpha virt. eigenvalues --    2.70499   2.70814   2.70975   2.72145   2.73118
 Alpha virt. eigenvalues --    2.73574   2.73665   2.75272   2.76747   2.78555
 Alpha virt. eigenvalues --    2.79507   2.79973   2.80873   2.81286   2.81638
 Alpha virt. eigenvalues --    2.82932   2.83198   2.85667   2.85706   2.91424
 Alpha virt. eigenvalues --    2.92207   2.96720   2.97344   2.99506   2.99576
 Alpha virt. eigenvalues --    2.99672   3.00051   3.00648   3.01245   3.01563
 Alpha virt. eigenvalues --    3.04806   3.05249   3.05878   3.06143   3.06172
 Alpha virt. eigenvalues --    3.07248   3.10623   3.15537   3.17868   3.19900
 Alpha virt. eigenvalues --    3.20204   3.21028   3.21289   3.23691   3.23899
 Alpha virt. eigenvalues --    3.25065   3.25184   3.25195   3.25367   3.25699
 Alpha virt. eigenvalues --    3.25921   3.25987   3.26363   3.27990   3.32137
 Alpha virt. eigenvalues --    3.33484   3.33509   3.33678   3.33730   3.34355
 Alpha virt. eigenvalues --    3.36060   3.42294   3.42403   3.42927   3.43015
 Alpha virt. eigenvalues --    3.49920   3.50237   3.50968   3.51205   3.52028
 Alpha virt. eigenvalues --    3.64009   3.72927   3.75821   3.88413   3.88452
 Alpha virt. eigenvalues --    3.89475   3.89919   4.31429   4.33636   4.33887
 Alpha virt. eigenvalues --    4.34826   4.35113   4.35954   4.37479   4.37796
 Alpha virt. eigenvalues --    4.38075   4.40428   4.40547   4.42293   4.42950
 Alpha virt. eigenvalues --    4.49428   4.49931   4.49939   4.49997   4.50592
 Alpha virt. eigenvalues --    4.52040   4.52728   4.52792   4.53563   4.53686
 Alpha virt. eigenvalues --    4.53742   4.54629   4.55593   4.55730   4.56673
 Alpha virt. eigenvalues --    4.57324   4.62107   4.62371   4.63801   4.83677
 Alpha virt. eigenvalues --    4.88027   4.88568   4.89161   4.92095   5.01802
          Condensed to atoms (all electrons):
 Mulliken charges:
               1
     1  H    0.120085
     2  C   -0.045007
     3  C   -0.121184
     4  H    0.122496
     5  C   -0.147298
     6  H    0.116773
     7  C   -0.097984
     8  C   -0.146047
     9  H    0.116890
    10  C   -0.119598
    11  H    0.122516
    12  C    0.102796
    13  C   -0.162547
    14  H    0.130347
    15  C   -0.159520
    16  H    0.130502
    17  C    0.102274
    18  C   -0.104258
    19  C   -0.144138
    20  H    0.116734
    21  C   -0.124441
    22  H    0.122537
    23  C   -0.040046
    24  H    0.120046
    25  C   -0.122568
    26  H    0.122479
    27  C   -0.144282
    28  H    0.116761
    29  C    0.118551
    30  C   -0.376149
    31  H    0.157724
    32  C    0.116575
    33  C    0.102493
    34  C   -0.099684
    35  C   -0.149470
    36  H    0.116887
    37  C   -0.119681
    38  H    0.122597
    39  C   -0.043244
    40  H    0.120036
    41  C   -0.119218
    42  H    0.122489
    43  C   -0.145600
    44  H    0.116729
    45  C   -0.163532
    46  H    0.130328
    47  C   -0.160999
    48  H    0.130472
    49  C    0.103726
    50  C    0.120714
    51  C   -0.375252
    52  C    0.116371
    53  H    0.157842
    54  C   -0.105527
    55  C   -0.143215
    56  H    0.116776
    57  C   -0.124536
    58  H    0.122371
    59  C   -0.041677
    60  H    0.120100
    61  C   -0.125386
    62  H    0.122411
    63  C   -0.143104
    64  H    0.116767
 Sum of Mulliken charges =  -0.00000
 Mulliken charges with hydrogens summed into heavy atoms:
               1
     2  C    0.075077
     3  C    0.001312
     5  C   -0.030525
     7  C   -0.097984
     8  C   -0.029157
    10  C    0.002918
    12  C    0.102796
    13  C   -0.032200
    15  C   -0.029018
    17  C    0.102274
    18  C   -0.104258
    19  C   -0.027403
    21  C   -0.001904
    23  C    0.080000
    25  C   -0.000089
    27  C   -0.027522
    29  C    0.118551
    30  C   -0.218426
    32  C    0.116575
    33  C    0.102493
    34  C   -0.099684
    35  C   -0.032583
    37  C    0.002915
    39  C    0.076792
    41  C    0.003271
    43  C   -0.028871
    45  C   -0.033204
    47  C   -0.030527
    49  C    0.103726
    50  C    0.120714
    51  C   -0.217410
    52  C    0.116371
    54  C   -0.105527
    55  C   -0.026439
    57  C   -0.002165
    59  C    0.078423
    61  C   -0.002975
    63  C   -0.026337
 Electronic spatial extent (au):  <R**2>=          19312.6059
 Charge=             -0.0000 electrons
 Dipole moment (field-independent basis, Debye):
    X=              0.0003    Y=              0.0053    Z=             -0.0023  Tot=              0.0058
 Quadrupole moment (field-independent basis, Debye-Ang):
   XX=           -196.4400   YY=           -225.5435   ZZ=           -208.7586
   XY=             -0.0186   XZ=             -0.0026   YZ=              0.0327
 Traceless Quadrupole moment (field-independent basis, Debye-Ang):
   XX=             13.8073   YY=            -15.2961   ZZ=              1.4888
   XY=             -0.0186   XZ=             -0.0026   YZ=              0.0327
 Octapole moment (field-independent basis, Debye-Ang**2):
  XXX=              0.0419  YYY=              0.1761  ZZZ=             -0.0144  XYY=             -0.0085
  XXY=              0.1773  XXZ=             -0.0067  XZZ=             -0.0509  YZZ=              0.0293
  YYZ=             -0.1935  XYZ=             -0.0535
 Hexadecapole moment (field-independent basis, Debye-Ang**3):
 XXXX=         -15984.1732 YYYY=          -9069.9434 ZZZZ=          -1219.0925 XXXY=             -1.1724
 XXXZ=             -0.0236 YYYX=             -0.5075 YYYZ=              0.6127 ZZZX=             -0.0400
 ZZZY=              0.2098 XXYY=          -4599.0775 XXZZ=          -2864.0085 YYZZ=          -1672.8863
 XXYZ=              0.6846 YYXZ=              0.3135 ZZXY=              0.1321
 N-N= 3.727014004562D+03 E-N=-1.084170102405D+04  KE= 1.449743586953D+03
 Calling FoFJK, ICntrl=      2127 FMM=T ISym2X=0 I1Cent= 0 IOpClX= 0 NMat=1 NMatS=1 NMatT=0.
 ***** Axes restored to original set *****
 -------------------------------------------------------------------
 Center     Atomic                   Forces (Hartrees/Bohr)
 Number     Number              X              Y              Z
 -------------------------------------------------------------------
      1        1           0.008753572    0.000482950   -0.000050370
      2        6          -0.012519674   -0.000372368   -0.000205797
      3        6          -0.006060413   -0.000415527   -0.009943644
      4        1           0.004176214    0.000058506    0.007331970
      5        6           0.001983259    0.000340798   -0.007631049
      6        1          -0.003807199   -0.000142619    0.008195184
      7        6          -0.008972268   -0.002008216   -0.000263629
      8        6           0.002650509    0.000380701    0.008388623
      9        1          -0.004338067   -0.000110905   -0.008836594
     10        6          -0.006072768   -0.000353610    0.010798746
     11        1           0.004331435   -0.000030326   -0.007852180
     12        6           0.007796880    0.000030885    0.000088785
     13        6          -0.000758903   -0.009780032   -0.000064113
     14        1           0.002509629    0.009440256    0.000051809
     15        6           0.000379598   -0.010032976    0.000008059
     16        1          -0.002496172    0.009458979   -0.000006528
     17        6          -0.007373006    0.000558337    0.000076637
     18        6           0.009324645   -0.002041033    0.000187607
     19        6          -0.001951010    0.000107070   -0.007414676
     20        1           0.003806148   -0.000093049    0.008188719
     21        6           0.006434270   -0.000294966   -0.009574992
     22        1          -0.004210304    0.000109571    0.007321341
     23        6           0.010848109   -0.000305207    0.000287670
     24        1          -0.008171148    0.000359871   -0.000048423
     25        6           0.006262271   -0.000196114    0.009466762
     26        1          -0.004107443   -0.000010298   -0.007363201
     27        6          -0.002404671    0.000078091    0.007259716
     28        1           0.004089698   -0.000015480   -0.008365385
     29        6           0.006043152   -0.002425628    0.000017477
     30        6           0.014058947    0.000664484   -0.000064574
     31        1          -0.013332055   -0.000117006    0.000018502
     32        6           0.006183606    0.001872363    0.000036024
     33        6          -0.007453406   -0.000933656   -0.000019181
     34        6           0.009267105    0.001873407    0.000188740
     35        6          -0.002338269   -0.000203314   -0.007650429
     36        1           0.004023038    0.000194211    0.008403797
     37        6           0.006076644    0.000154807   -0.009893062
     38        1          -0.004184545   -0.000043191    0.007357341
     39        6           0.012196298    0.000490308    0.000369892
     40        1          -0.008711387   -0.000361435   -0.000038042
     41        6           0.005963928    0.000044025    0.009627491
     42        1          -0.004054019    0.000038576   -0.007368901
     43        6          -0.002237225   -0.000134645    0.007184000
     44        1           0.003875796    0.000156110   -0.008189472
     45        6           0.000375919    0.010570361   -0.000116354
     46        1          -0.002542779   -0.009401456    0.000054867
     47        6          -0.000282494    0.010144996    0.000023185
     48        1           0.002507860   -0.009459241   -0.000019351
     49        6           0.007185499    0.000006637    0.000136836
     50        6          -0.006006283    0.001478872    0.000072088
     51        6          -0.014621662    0.000457777   -0.000004381
     52        6          -0.006109976   -0.002381368   -0.000055586
     53        1           0.013950191    0.000001657   -0.000014047
     54        6          -0.009257097    0.002003582   -0.000488661
     55        6           0.002252048   -0.000398879   -0.006813028
     56        1          -0.003906644    0.000091855    0.008145308
     57        6          -0.006151888    0.000391160   -0.010282276
     58        1           0.004080578    0.000105656    0.007327144
     59        6          -0.011069509    0.000163920    0.000327488
     60        1           0.008196235   -0.000506825    0.000051773
     61        6          -0.006448580    0.000364463    0.009672316
     62        1           0.004174834    0.000131526   -0.007269824
     63        6           0.002241641   -0.000246657    0.007651131
     64        1          -0.004048692    0.000009259   -0.008409281
 -------------------------------------------------------------------
 Cartesian Forces:  Max     0.014621662 RMS     0.005592129

 GradGradGradGradGradGradGradGradGradGradGradGradGradGradGradGradGradGrad
 Berny optimization.
 FormGI is forming the generalized inverse of G from B-inverse, IUseBI=4.
 Internal  Forces:  Max     0.019968850 RMS     0.003828124
 Search for a local minimum.
 Step number   1 out of a maximum of  370
 All quantities printed in internal units (Hartrees-Bohrs-Radians)
 Mixed Optimization -- RFO/linear search
 Second derivative matrix not updated -- first step.
 ITU=  0
     Eigenvalues ---    0.01187   0.01187   0.01187   0.01187   0.01709
     Eigenvalues ---    0.01711   0.01713   0.01742   0.01745   0.01755
     Eigenvalues ---    0.01764   0.01768   0.01790   0.01807   0.01807
     Eigenvalues ---    0.01807   0.01811   0.01889   0.01962   0.01976
     Eigenvalues ---    0.02087   0.02088   0.02088   0.02093   0.02097
     Eigenvalues ---    0.02097   0.02097   0.02105   0.02108   0.02118
     Eigenvalues ---    0.02118   0.02118   0.02122   0.02126   0.02127
     Eigenvalues ---    0.02127   0.02130   0.02146   0.02148   0.02148
     Eigenvalues ---    0.02151   0.02152   0.02156   0.02157   0.02158
     Eigenvalues ---    0.02160   0.02161   0.02161   0.02162   0.02163
     Eigenvalues ---    0.02163   0.02164   0.02165   0.02166   0.02166
     Eigenvalues ---    0.02166   0.02167   0.02169   0.02170   0.02295
     Eigenvalues ---    0.02300   0.16000   0.16000   0.16000   0.16000
     Eigenvalues ---    0.16000   0.16000   0.16000   0.16000   0.16000
     Eigenvalues ---    0.16000   0.16000   0.16000   0.16000   0.16000
     Eigenvalues ---    0.16000   0.16000   0.16000   0.16000   0.16000
     Eigenvalues ---    0.16000   0.16000   0.16000   0.16000   0.16000
     Eigenvalues ---    0.16000   0.16000   0.22000   0.22000   0.22000
     Eigenvalues ---    0.22000   0.22000   0.22000   0.22000   0.22000
     Eigenvalues ---    0.22487   0.22490   0.23149   0.23478   0.23478
     Eigenvalues ---    0.23478   0.23478   0.23986   0.24481   0.24486
     Eigenvalues ---    0.24993   0.24994   0.24994   0.24994   0.25000
     Eigenvalues ---    0.25000   0.25000   0.25000   0.25000   0.25000
     Eigenvalues ---    0.25000   0.33244   0.33352   0.33533   0.33602
     Eigenvalues ---    0.33602   0.33602   0.33602   0.33626   0.33628
     Eigenvalues ---    0.33630   0.33645   0.33675   0.33680   0.33682
     Eigenvalues ---    0.33684   0.33704   0.33712   0.33735   0.33735
     Eigenvalues ---    0.33739   0.33739   0.33741   0.33746   0.33746
     Eigenvalues ---    0.33811   0.33815   0.35698   0.35957   0.35957
     Eigenvalues ---    0.35957   0.35959   0.37977   0.38004   0.38076
     Eigenvalues ---    0.39482   0.40163   0.41650   0.41683   0.41824
     Eigenvalues ---    0.41867   0.41886   0.41893   0.41952   0.42021
     Eigenvalues ---    0.42038   0.42039   0.42063   0.44896   0.45698
     Eigenvalues ---    0.45704   0.45709   0.45724   0.45729   0.45768
     Eigenvalues ---    0.45991   0.46035   0.46043   0.46113   0.46466
     Eigenvalues ---    0.46525   0.46538   0.46596   0.46631   0.46640
     Eigenvalues ---    0.46646   0.46650   0.48858   0.48936   0.50135
     Eigenvalues ---    0.50221
 RFO step:  Lambda=-1.50109549D-02 EMin= 1.18664669D-02
 Linear search not attempted -- first point.
 Iteration  1 RMS(Cart)=  0.05555370 RMS(Int)=  0.00014388
 Iteration  2 RMS(Cart)=  0.00045659 RMS(Int)=  0.00000660
 Iteration  3 RMS(Cart)=  0.00000007 RMS(Int)=  0.00000660
 Variable       Old X    -DE/DX   Delta X   Delta X   Delta X     New X
                                 (Linear)    (Quad)   (Total)
    R1        2.07833  -0.00877   0.00000  -0.02490  -0.02490   2.05343
    R2        2.63533   0.00214   0.00000   0.00450   0.00449   2.63982
    R3        2.63434   0.00247   0.00000   0.00520   0.00519   2.63954
    R4        2.07773  -0.00844   0.00000  -0.02394  -0.02394   2.05379
    R5        2.63409   0.00367   0.00000   0.00759   0.00759   2.64168
    R6        2.07874  -0.00900   0.00000  -0.02559  -0.02559   2.05315
    R7        2.64676   0.00328   0.00000   0.00690   0.00691   2.65368
    R8        2.64615   0.00342   0.00000   0.00722   0.00723   2.65338
    R9        2.77449   0.01991   0.00000   0.05315   0.05315   2.82764
   R10        2.08125  -0.00982   0.00000  -0.02804  -0.02804   2.05322
   R11        2.63402   0.00374   0.00000   0.00779   0.00779   2.64181
   R12        2.07934  -0.00896   0.00000  -0.02551  -0.02551   2.05383
   R13        2.59106   0.00326   0.00000   0.00591   0.00591   2.59697
   R14        2.72053   0.00515   0.00000   0.01288   0.01287   2.73340
   R15        2.08007  -0.00950   0.00000  -0.02705  -0.02705   2.05302
   R16        2.68530   0.00410   0.00000   0.00864   0.00865   2.69395
   R17        2.08007  -0.00951   0.00000  -0.02708  -0.02708   2.05299
   R18        2.59009   0.00373   0.00000   0.00682   0.00683   2.59692
   R19        2.77446   0.01995   0.00000   0.05327   0.05327   2.82773
   R20        2.72053   0.00514   0.00000   0.01290   0.01290   2.73343
   R21        2.64680   0.00308   0.00000   0.00654   0.00655   2.65335
   R22        2.64778   0.00276   0.00000   0.00584   0.00585   2.65364
   R23        2.07871  -0.00900   0.00000  -0.02557  -0.02557   2.05314
   R24        2.63430   0.00356   0.00000   0.00742   0.00742   2.64171
   R25        2.07780  -0.00845   0.00000  -0.02397  -0.02397   2.05383
   R26        2.63627   0.00159   0.00000   0.00335   0.00335   2.63962
   R27        2.07644  -0.00818   0.00000  -0.02316  -0.02316   2.05328
   R28        2.63696   0.00139   0.00000   0.00291   0.00290   2.63986
   R29        2.07773  -0.00843   0.00000  -0.02392  -0.02392   2.05381
   R30        2.63423   0.00350   0.00000   0.00725   0.00725   2.64148
   R31        2.07959  -0.00929   0.00000  -0.02644  -0.02644   2.05315
   R32        2.64362   0.00439   0.00000   0.00930   0.00930   2.65292
   R33        2.70231   0.01277   0.00000   0.03086   0.03085   2.73315
   R34        2.08437  -0.01333   0.00000  -0.03825  -0.03825   2.04612
   R35        2.64527   0.00387   0.00000   0.00820   0.00820   2.65347
   R36        2.72053   0.00510   0.00000   0.01275   0.01275   2.73327
   R37        2.70231   0.01273   0.00000   0.03062   0.03061   2.73292
   R38        2.77449   0.01991   0.00000   0.05315   0.05315   2.82764
   R39        2.58944   0.00414   0.00000   0.00759   0.00760   2.59704
   R40        2.64690   0.00306   0.00000   0.00647   0.00647   2.65338
   R41        2.64762   0.00285   0.00000   0.00599   0.00600   2.65362
   R42        2.07962  -0.00929   0.00000  -0.02645  -0.02645   2.05317
   R43        2.63415   0.00367   0.00000   0.00765   0.00765   2.64180
[...]
 00000517,-0.00000341,-0.00000398,0.00000290,-0.00000064,-0.00000885,-0
 .00001183,0.00000137,0.00001357,-0.00000041,0.00000110,-0.00000777,0.0
 0000213,-0.00000157,0.00000174,0.00000076,-0.00000139,0.00000073,-0.00
 000135,-0.00000057,-0.00000148,0.,0.00000135,-0.00000394,0.00000030,-0
 .00000084,-0.00000189,0.00000041,0.00000017,0.00000004,0.00000024,0.00
 000150,-0.00000167,0.00000138,-0.00000109,-0.00000651,-0.00000259,0.00
 000106,0.00000210,-0.00000029,0.00000157,0.00001793,0.00002591,0.00000
 056,-0.00000566,-0.00003396,0.00000530,-0.00000229,0.00000055,0.000003
 18,0.00000443,0.00002647,-0.00002049,-0.00000587,-0.00000469,0.0000052
 5,0.00001162,-0.00000555,-0.00000765,-0.00000210,-0.00000156,-0.000000
 41,0.00000119,0.00000195,-0.00000068,-0.00000042,-0.00000116,-0.000001
 64,-0.00000092,0.00000056,0.00000115,-0.00000135,-0.00000174,0.0000008
 4,-0.00000137,0.00000096,0.00000038,0.00000148,-0.00000077,-0.00000167
 ,-0.00000122,0.00000186,-0.00000014,-0.00000639,-0.00000329,-0.0000004
 3,0.00000106,0.00000290,0.00000283,0.00000977,-0.00000342,0.00006911,0
 .00000069,-0.00000038,-0.00000259,0.00011503,-0.00000082,-0.00002827,0
 .00003196,-0.00001461,-0.00002594,0.00028443,0.00020607,-0.00009936,-0
 .00005863,0.00007449,-0.00006725,0.00006734,-0.00008118,0.00000011,-0.
 00005399,0.00004317,-0.00001620,-0.00000586,0.00003317,-0.00000320,0.0
 0122450,0.00620981,0.00208234,0.00023114,-0.00075886,-0.00021629,-0.00
 013316,-0.00089146,-0.00040073,0.00248847,0.00516788,0.00370965,-0.000
 35152,0.00000861,0.00052453,-0.00695859,-0.00001685,0.00958673,-0.0003
 3517,-0.00311761,-0.00179528,-0.03827245,-0.06356030,0.07398580,0.0399
 5154,0.05577138,-0.00002137,-0.00004014,-0.00001514,-0.00004249,0.0000
 4807,0.00002542,-0.00000781,0.00004414,-0.00003615,0.00000555,-0.00000
 835,-0.00001486,0.00001174,0.00000072,-0.00001894,-0.00000799,0.000003
 17,0.00001490,0.00004503,-0.00001125,-0.00000627,0.00000319,0.00000650
 ,0.00001779,-0.00000120,0.00000025,-0.00000801,-0.00000878,0.00000377,
 0.00005731,-0.00000025,-0.00002085,0.00000198,0.00006639,-0.00000545,0
 .00000708,-0.00004419,-0.00000520,0.00000229,0.00000347,-0.00001158,0.
 00000068,0.00002122,-0.00001269,-0.00000142,-0.00000294,-0.00000126,-0
 .00000095,-0.00002173,-0.00000527,0.00000016,0.00000067,-0.00000501,0.
 00000250,-0.00000265,-0.00000140,-0.00000347,0.00000031,0.00000254,0.0
 0000300,-0.00000158,-0.00000291,0.00000058,-0.00000059,0.00000135,0.00
 000068,-0.00000093,-0.00000108,0.00000036,0.00000055,0.00000083,0.0000
 0036,0.00000020,0.00000025,-0.00000072,0.00000054,0.00000047,0.0000008
 1,-0.00000113,-0.00000085,-0.00000159,-0.00000019,0.00000083,0.0000004
 3,0.00002113,0.00002116,-0.00000017,0.00000246,-0.00002891,0.00000500,
 0.00000003,-0.00000287,0.00000389,0.00000501,0.00000561,-0.00001532,0.
 00000849,0.00000007,-0.00000097,-0.00001728,-0.00000472,-0.00000117,0.
 00001029,-0.00000544,0.00000241,-0.00000265,-0.00000112,0.00000217,0.0
 0000111,0.00000253,0.00000285,0.00000224,0.00000157,-0.00000136,0.0000
 0614,0.00000095,-0.00000148,0.00000254,0.00000024,0.00000018,-0.000000
 75,-0.00000281,0.00000011,0.00000279,-0.00000015,0.00000215,0.00001271
 ,0.00000455,-0.00000587,-0.00000268,0.00000099,-0.00000069,-0.00000321
 ,-0.00002196,0.00002678,0.00001180,0.00000332,-0.00000042,0.00008982,-
 0.00005535,-0.00003847,0.00000356,-0.00002103,-0.00001283,-0.00011062,
 0.00011528,0.00003407,0.00002063,0.00009937,-0.00005306,0.00004886,-0.
 00007989,-0.00000913,-0.00003951,0.00005348,-0.00001172,0.00001030,0.0
 0005982,-0.00000191,-0.00037138,0.00193572,0.00277215,-0.00079786,-0.0
 0030946,0.00017706,0.00004486,-0.00038049,-0.00018890,-0.00344855,0.00
 387137,-0.00141534,0.00075315,0.00037743,-0.00084806,0.01468918,0.0060
 2306,-0.01498543,-0.00038505,-0.00170131,0.00025893,0.11403603,0.07410
 330,-0.24327738,-0.12330263,-0.08272883,0.25488899,-0.00000252,-0.0000
 0948,-0.00000573,0.00001260,0.00001075,0.00001491,-0.00004690,0.000033
 78,-0.00002093,0.00000801,-0.00000521,-0.00001172,0.00010649,0.0000233
 0,-0.00000432,-0.00002186,0.00001792,-0.00001484,-0.00012773,0.0000020
 5,0.00002225,0.00003020,-0.00006495,-0.00001784,-0.00002858,0.00004059
 ,0.00000720,0.00005830,-0.00001775,0.00000979,0.00001437,0.00001938,-0
 .00000203,-0.00011633,0.00014443,0.00000473,0.00015545,0.00001183,-0.0
 0001099,0.00000014,0.00002270,0.00000171,-0.00010453,0.00001361,0.0000
 1233,-0.00000018,0.00001211,0.00000215,0.00005215,0.00003669,-0.000047
 38,0.00002877,0.00001784,-0.00000807,-0.00000717,0.00001469,0.00000267
 ,0.00000170,-0.00000992,-0.00001550,0.00000808,0.00001174,-0.00000347,
 -0.00000143,-0.00000774,-0.00000265,-0.00000291,0.00000446,0.00000031,
 -0.00000474,-0.00000381,-0.00000149,-0.00000093,0.00000213,0.00000286,
 -0.00000693,0.00000097,-0.00000483,-0.00001842,-0.00000777,0.00001559,
 0.00000540,-0.00000038,0.00000133,-0.00018452,-0.00006310,-0.00001626,
 0.00008329,0.00018346,-0.00001429,0.00000554,-0.00000145,-0.00009466,-
 0.00026898,-0.00041319,-0.00039970,0.00024938,-0.00027833,0.00021248,0
 .00009282,0.00004859,0.00020215,-0.00013419,0.00009871,-0.00005724,0.0
 0002247,0.00001454,-0.00001325,-0.00000250,-0.00004519,-0.00002516,-0.
 00002752,-0.00001100,0.00001085,-0.00006330,-0.00000864,0.00000602,-0.
 00001725,0.00000218,-0.00000103,-0.00000020,0.00001824,0.00000232,-0.0
 0002642,0.00000629,-0.00001265,-0.00008847,-0.00009739,0.00008209,0.00
 001778,0.00000428,0.00000339,-0.00086093,-0.00086798,-0.00160446,-0.00
 038266,-0.00002488,-0.00002447,-0.00136317,0.00408158,-0.00069784,0.00
 013321,-0.00050268,0.00099895,-0.02459277,-0.01136285,0.02669766,0.001
 02675,-0.00190527,0.00182877,-0.00035357,0.00179874,0.00051729,0.00007
 051,-0.00025021,0.00019414,-0.00087414,0.00101167,0.00011520,-0.166244
 96,-0.01055659,0.05092561,0.06095347,-0.01235784,0.01825924,-0.0010325
 6,0.00220916,-0.00351628,-0.04992468,-0.00680516,0.02786103,-0.0008075
 9,-0.00032995,0.00072918,-0.02668587,0.03216225,-0.06808510,0.00071821
 ,0.00127256,-0.00177673,-0.33698111,0.01415192,0.03898537,-0.01074238,
 0.00236617,-0.00136096,0.68406525,-0.00000286,0.00000928,0.00000784,0.
 00003373,-0.00001102,-0.00004154,0.00004367,-0.00003664,0.00007275,-0.
 00000013,0.00000974,0.00000094,-0.00002343,-0.00009295,-0.00002014,-0.
 00000203,0.00003062,0.00003411,-0.00003511,0.00004867,-0.00002607,-0.0
 0000846,0.00000422,-0.00004235,0.00000089,-0.00001126,0.00000996,0.000
 00139,0.00000822,-0.00001747,-0.00000414,0.00000585,0.00000734,0.00003
 405,0.00018291,-0.00009915,0.00007826,-0.00014525,0.00002580,0.0000010
 6,-0.00000435,0.00000247,-0.00010141,0.00000079,0.00000173,0.00000493,
 -0.00001260,0.00000217,0.00003288,0.00007812,-0.00001625,-0.00002881,-
 0.00001717,0.00002115,0.00001475,-0.00000510,0.00000231,-0.00000413,0.
 00000106,0.00000858,-0.00000517,-0.00000420,0.00000051,0.00000311,0.00
 000207,-0.00000133,0.00000708,-0.00000105,0.00000183,0.00000440,-0.000
 00008,0.00000039,0.00000365,-0.00000284,0.00000161,0.00000652,-0.00000
 336,0.00000345,0.00002553,0.00000948,-0.00001507,-0.00000499,-0.000001
 18,-0.00000097,-0.00007647,-0.00019201,0.00013648,-0.00000835,0.000071
 56,-0.00009131,-0.00000579,0.00001680,0.00001944,-0.00013140,-0.000037
 06,-0.00003844,0.00038548,0.00001010,-0.00006643,-0.00017992,-0.000011
 87,0.00009533,0.00004193,0.00001624,0.00000038,-0.00000833,-0.00000568
 ,0.00000565,-0.00000173,0.00000364,0.00000892,0.00000793,0.00000098,-0
 .00000532,0.00003239,0.00001737,0.00000078,0.00000591,-0.00000208,-0.0
 0000012,-0.00001083,-0.00003544,0.00001116,0.00001483,-0.00000319,0.00
 000452,0.00009757,0.00003869,-0.00001506,-0.00000186,-0.00001263,-0.00
 000638,-0.00063801,0.00029429,-0.00020764,0.00006735,-0.00000170,0.000
 00406,0.00159888,0.00123415,-0.00057349,-0.00008884,0.00005727,0.00020
 978,-0.00719976,0.00499922,-0.00160951,0.00067631,-0.00233988,0.001182
 42,0.00108760,-0.00104866,-0.00079942,0.00067970,-0.00015715,0.0000564
 8,0.00143002,-0.00098851,-0.00045527,-0.02810216,-0.08990520,0.0680749
 1,0.00300062,-0.00057421,0.02037543,0.00182272,0.00459387,0.00374893,-
 0.00649304,-0.00569908,0.00216795,-0.00035885,-0.00065733,-0.00042072,
 0.01391217,0.00693489,-0.00385642,0.00178076,0.00505492,0.00432851,0.0
 3991675,-0.07387390,0.01936164,-0.00964991,0.00424411,0.00047319,-0.06
 653737,0.22723627,-0.00000963,-0.00001169,-0.00001200,-0.00001421,0.00
 002085,0.00000896,-0.00002689,0.00003600,-0.00000083,-0.00000797,-0.00
 001066,-0.00001864,0.00000427,-0.00002017,0.00002273,0.00001503,-0.000
 02659,-0.00002703,0.00000579,-0.00000249,0.00003729,0.00001672,-0.0000
 3814,-0.00003220,-0.00001236,0.00004319,-0.00001101,0.00004198,0.00000
 075,-0.00001737,0.00000495,-0.00000118,0.00000304,-0.00002866,-0.00007
 906,-0.00003178,-0.00009109,0.00005909,-0.00001841,0.00000103,0.000002
 05,0.00001258,0.00004953,0.00005067,-0.00001928,0.00000141,0.00000073,
 0.00000486,0.00001575,-0.00002705,0.00001642,-0.00000704,-0.00000491,0
 .00001265,0.00000252,0.00000220,0.00000140,-0.00000097,-0.00000302,-0.
 00000065,0.00000095,0.00000270,-0.00000135,0.00000239,-0.00000168,-0.0
 0000355,0.00000257,0.00000051,0.00000223,0.00000183,-0.00000107,-0.000
 00030,0.00000049,-0.00000024,-0.00000223,-0.00000073,0.,0.00000034,0.0
 0000315,-0.00000264,0.00000332,-0.00000017,0.00000565,-0.00000179,0.00
 005939,0.00010381,0.00011992,0.00004858,-0.00009421,0.00001507,-0.0000
 1989,0.00001063,-0.00007063,-0.00026869,0.00017456,0.00004415,-0.00038
 900,0.00012822,-0.00001097,0.00012461,0.00006483,0.00000424,-0.0000635
 1,0.00001704,-0.00000641,0.00000871,0.00000308,-0.00000826,0.00001076,
 -0.00001801,-0.00000330,-0.00000932,-0.00000265,0.00000205,-0.00002656
 ,0.00000458,0.00000018,-0.00000376,0.00000024,-0.00000173,-0.00000779,
 0.00000737,-0.00002325,-0.00001463,-0.00000068,-0.00000576,-0.00008224
 ,-0.00001461,0.00005331,-0.00000041,0.00000067,-0.00000533,0.00029398,
 -0.00012471,-0.00026179,-0.00011586,-0.00005719,0.00000907,-0.00331208
 ,-0.00142963,0.00073585,-0.00001204,0.00040726,-0.00013405,0.00781600,
 -0.00082643,0.00404621,-0.00154088,0.00024688,-0.00082851,-0.00013232,
 -0.00049442,-0.00071137,-0.00004123,0.00044446,-0.00018055,0.00102078,
 -0.00065985,0.00048851,0.10500042,0.06404645,-0.23818278,-0.02176456,0
 .02496997,-0.04742832,-0.00269290,0.00376377,-0.00134211,0.02708602,0.
 00216360,-0.01743896,0.00080713,-0.00042879,0.00001631,-0.02567755,-0.
 00783422,0.03277127,-0.00266624,0.00453526,-0.00267230,-0.01988336,0.0
 2555843,-0.11912451,0.02719622,-0.00290397,0.00256159,0.01678432,-0.20
 214528,0.61730621,0.00000093,-0.00000172,-0.00000303,-0.00003586,0.000
 00264,0.00000057,-0.00000165,0.00000273,-0.00001489,-0.00000029,0.0000
 0176,0.00000799,-0.00002183,0.00000189,-0.00001522,0.00000085,-0.00000
 404,0.00001248,0.00007739,0.00000623,-0.00000577,-0.00000200,0.0000277
 4,0.00003666,0.00001534,-0.00001934,-0.00000526,-0.00003624,0.00001446
 ,0.00001998,-0.00000812,-0.00001958,-0.00000032,0.00008400,0.00000701,
 0.00000104,-0.00001441,-0.00001975,0.00001575,0.00000217,-0.00001309,-
 0.00000076,0.00000885,-0.00002905,0.00000614,-0.00000275,-0.00000360,-
 0.00000140,-0.00004135,0.00001066,-0.00000575,-0.00000557,-0.00000643,
 -0.00000294,0.00000170,-0.00000420,-0.00000110,-0.00000085,0.00000296,
 0.00000485,-0.00000306,-0.00000324,0.00000063,0.00000036,0.00000176,0.
 00000029,0.00000089,-0.00000130,0.00000081,0.00000153,0.00000098,0.000
 00044,0.00000036,-0.00000099,-0.00000208,0.00000169,0.00000005,0.00000
 151,0.00000184,0.00000120,-0.00000305,-0.00000136,0.00000142,-0.000000
 62,-0.00001994,0.00000630,-0.00003634,-0.00000966,0.00004923,0.0000066
 7,0.00000463,-0.00000767,0.00001872,-0.00009795,-0.00010223,-0.0001375
 9,0.00001707,0.00010352,0.00000120,-0.00003631,-0.00000065,-0.00000009
 ,0.00001928,-0.00000683,0.00000707,-0.00000420,-0.00000229,0.00000277,
 0.00000160,0.00000376,0.00000327,0.00000474,0.00000194,-0.00000274,0.0
 0001173,0.00000298,-0.00000088,0.00000432,0.00000007,-0.00000047,-0.00
 000411,-0.00000154,-0.00000452,0.00000430,-0.00000105,0.00000267,0.000
 01783,0.00000190,0.00000030,-0.00000769,0.00000298,-0.00000450,0.00009
 601,-0.00007453,0.00005268,0.00001393,0.00000468,-0.00001312,-0.000096
 78,-0.00014967,-0.00005727,-0.00000045,0.00002393,0.00001080,0.0009955
 5,-0.00053415,0.00014014,0.00001054,0.00005154,0.00018089,0.00005277,0
 .00054399,0.00037560,-0.00008075,-0.00002155,0.00005296,-0.00012050,0.
 00015288,0.00002579,0.01058360,-0.00619190,0.01329233,-0.00113810,-0.0
 0046662,0.00339485,0.00051965,-0.00039290,0.00075953,-0.00066582,-0.00
 033030,0.00068647,0.00007362,-0.00008805,-0.00013834,-0.00542793,0.000
 65836,0.00184782,-0.00064633,0.00064311,-0.00125833,-0.01030636,0.0122
 4296,-0.02613845,0.00098968,-0.00060395,0.00006699,-0.12576949,0.05285
 852,-0.10750267,0.13098898,0.00000728,-0.00000225,0.00000160,-0.000019
 13,-0.00000187,0.00000399,-0.00000945,0.00000675,-0.00001303,0.0000017
 3,-0.00000414,0.00000315,-0.00001790,0.00003079,-0.00002641,0.00000404
 ,-0.00000405,0.00000363,0.00005426,0.00001528,-0.00000477,-0.00000557,
 0.00002001,0.00004135,0.00000608,-0.00002189,-0.00000070,-0.00004417,0
 .00000329,0.00002150,0.00000010,-0.00000439,-0.00000620,0.00006029,-0.
 00001438,0.00000892,0.00002077,0.00000815,-0.00000200,0.00000196,-0.00
 000429,-0.00000273,0.00000499,-0.00003643,0.00000730,-0.00000593,0.000
 00482,-0.00000166,-0.00001419,0.00000590,0.00000156,0.00002051,0.00000
 269,-0.00000186,-0.00001005,0.00000099,-0.00000312,0.00000293,0.000002
 38,-0.00000180,0.00000231,-0.00000188,-0.00000121,-0.00000269,0.000000
 84,0.00000245,-0.00000725,-0.00000075,-0.00000230,-0.00000278,0.000001
 17,0.00000041,-0.00000135,0.00000222,0.00000233,-0.00000298,0.00000265
 ,-0.00000142,-0.00001006,-0.00000631,0.00000205,0.00000363,0.00000012,
 0.00000186,-0.00002269,-0.00002338,-0.00000052,-0.00003323,0.00003524,
 -0.00003513,0.00000727,-0.00000607,-0.00002304,-0.00016392,-0.00006624
 ,0.00027240,0.00001479,0.00011249,-0.00000587,0.00000149,0.00000097,-0
 .00001346,0.00000995,-0.00000292,0.00000118,-0.00000021,0.00000159,-0.
 00000013,-0.00000133,0.00000156,-0.00000318,0.00000089,0.00000167,0.00
 000014,0.00000057,-0.00000246,0.00000272,0.00000007,0.00000215,0.00000
 055,0.00000247,-0.00000497,-0.00000770,-0.00000126,0.00000292,0.000000
 98,-0.00000439,-0.00001280,0.00000059,-0.00000295,0.00001524,0.0000056
 9,0.00010025,-0.00021161,0.00012309,-0.00003958,-0.00000522,-0.0000022
 5,-0.00080074,-0.00027359,0.00004849,-0.00000680,-0.00000671,0.0000079
 5,0.00103028,-0.00292347,-0.00164317,0.00045156,0.00032361,-0.00030985
 ,0.00015277,0.00010940,-0.00013081,-0.00006233,-0.00009875,-0.00004654
 ,0.00025111,-0.00035308,-0.00059414,0.00450192,-0.00005964,0.00653805,
 -0.00090424,0.00534599,0.00329485,0.00029313,0.00004085,0.00040741,-0.
 00038007,-0.00063291,-0.00045026,-0.00006589,-0.00094774,-0.00039177,0
 .00104638,0.00650412,0.00176794,0.00000830,0.00009297,0.00015398,0.000
 57456,0.00238411,0.00237981,-0.00033638,-0.00333325,-0.00178825,0.0526
 7479,-0.07932077,0.09038969,-0.05833395,0.07330532,0.00001211,0.000007
 35,0.00000165,0.00001020,-0.00000415,-0.00000885,-0.00003050,-0.000004
 56,-0.00001943,0.00001209,0.00000686,0.00001491,0.00001490,0.00003410,
 -0.00002693,-0.00001249,0.00000363,-0.00001058,-0.00000748,0.00001706,
 0.00000452,0.00000783,0.00000454,0.00005167,-0.00000386,-0.00000899,0.
 00000614,-0.00001655,-0.00000627,0.00001172,0.00000753,0.00000621,-0.0
 0000469,-0.00001479,0.00000300,0.00000406,0.00007145,0.00002203,-0.000
 01127,-0.00000058,0.00001158,-0.00000174,-0.00003109,-0.00001640,0.000
 00705,-0.00000431,0.00001039,-0.00000093,0.00000683,0.00000644,-0.0000
 0340,0.00003469,0.00001405,-0.00000665,-0.00001545,0.00000852,-0.00000
 086,0.00000486,-0.00000186,-0.00000982,0.00000750,0.00000101,-0.000002
 51,-0.00000443,-0.00000139,0.00000299,-0.00001011,0.00000212,-0.000003
 79,-0.00000516,0.,-0.00000036,-0.00000299,0.00000210,0.00000342,-0.000
 00518,0.00000238,-0.00000319,-0.00001606,-0.00000814,0.00000887,0.0000
 0496,-0.00000207,0.00000316,-0.00006780,-0.00003330,-0.00003150,-0.000
 07726,0.00007620,-0.00003343,0.00000598,-0.00000201,0.00000694,0.00023
 529,-0.00009640,0.00005300,0.00004855,-0.00005474,0.00000463,0.0000194
 3,-0.00002392,0.00000748,-0.00000983,0.00000310,-0.00001441,0.00000286
 ,0.00000253,-0.00000086,-0.00000350,0.00000080,-0.00000074,-0.00000450
 ,-0.00000048,0.00000306,-0.00000633,-0.00000335,0.00000263,-0.00000381
 ,0.00000120,0.00000112,0.00000884,-0.00000790,0.00000400,-0.00000204,0
 .00000288,-0.00000074,-0.00000333,-0.00000640,-0.00000543,0.00000449,0
 .00000577,0.00001335,-0.00013033,-0.00002189,-0.00001272,-0.00000207,-
 0.00001156,-0.00001314,0.00019614,0.00016540,0.00011172,-0.00003933,-0
 .00006789,-0.00003088,-0.00131217,-0.00143063,0.00022999,0.00056711,0.
 00023402,-0.00006023,0.00026196,0.00010155,0.00048302,-0.00011282,-0.0
 0024760,0.00006953,-0.00028879,-0.00036499,-0.00055842,-0.01436448,0.0
 0934467,-0.01580609,0.00403616,0.00313562,-0.00169904,-0.00072475,0.00
 058247,-0.00085560,0.00074608,-0.00046413,-0.00002751,-0.00013814,-0.0
 0039014,-0.00017984,0.00097571,0.00192930,0.00245818,0.00021322,-0.000
 01214,0.00012221,0.00275615,-0.00088227,0.00464546,-0.00047737,-0.0016
 9132,0.00010255,-0.10664208,0.09010026,-0.22966042,0.11431886,-0.09998
 229,0.24066694\\0.00000005,0.,0.00000068,-0.00000021,0.00000044,-0.000
 00005,-0.00000047,-0.00000055,0.00000065,0.00000016,-0.00000028,0.0000
 0035,-0.00000007,-0.00000075,0.00000022,-0.00000031,-0.00000064,0.0000
 0025,0.00000195,0.00000053,0.00000141,-0.00000108,-0.00000080,0.000000
 05,0.00000013,0.00000041,0.00000078,0.00000083,0.00000027,0.00000107,0
 .00000005,0.00000046,0.00000075,-0.00000240,0.00000050,-0.00000061,0.0
 0000134,-0.00000018,0.00000177,-0.00000010,-0.00000002,0.00000102,-0.0
 0000134,-0.00000028,-0.00000004,0.00000027,0.00000011,0.00000141,-0.00
 000013,0.00000181,-0.00000012,0.00000015,0.00000047,0.00000025,-0.0000
 0139,-0.00000067,0.00000113,-0.00000012,0.00000005,0.00000018,0.000000
 84,-0.00000055,0.00000080,-0.00000019,-0.00000025,0.00000033,0.0000000
 3,0.00000027,-0.00000017,-0.00000003,0.00000007,0.00000069,-0.00000060
 ,0.00000026,0.00000105,-0.00000006,0.00000034,0.00000073,0.00000070,0.
 00000064,0.00000111,-0.00000023,0.00000023,0.00000068,-0.00000126,-0.0
 0000183,0.00000093,-0.00000029,0.00000203,0.,0.00000061,-0.00000053,-0
 .00000059,0.00000244,-0.00000071,-0.00000029,-0.00000119,-0.00000026,-
 0.00000063,0.00000061,0.00000003,-0.00000070,-0.00000169,-0.00000045,-
 0.00000019,0.00000022,-0.00000044,-0.00000083,0.00000155,-0.00000065,0
 .00000003,-0.00000028,-0.00000028,-0.00000081,0.00000014,0.00000078,-0
 .00000250,-0.00000004,-0.00000024,-0.00000018,-0.00000191,-0.00000012,
 0.00000051,0.00000034,0.00000044,-0.00000056,0.00000158,-0.00000007,-0
 .00000027,-0.00000020,0.00000042,-0.00000036,0.00000069,-0.00000011,-0
 .00000083,-0.00000008,-0.00000012,-0.00000093,-0.00000045,-0.00000053,
 -0.00000078,0.00000022,-0.00000004,-0.00000078,0.00000002,0.00000070,-
 0.00000078,-0.00000201,-0.00000127,-0.00000005,0.00000028,0.00000329,0
 .00000044,0.00000216,-0.00000162,-0.00000052,0.00000094,0.00000009,-0.
 00000004,0.00000056,-0.00000070,0.00000037,-0.00000013,-0.00000001,-0.
 00000079,-0.00000023,-0.00000051,-0.00000076,-0.00000007,-0.00000011,-
 0.00000057,0.00000009,-0.00000037,-0.00000079,-0.00000023,-0.00000008,
 -0.00000113,0.00000004,-0.00000013,-0.00000047,0.00000056,0.00000023,-
 0.00000018,-0.00000005,0.00000045,-0.00000044,-0.00000056,0.00000030,-
 0.00000056,-0.00000013,0.00000053,-0.00000036\\\@


 ABSOLUTISM, OBSOLETISM -- IF IT WORKS, IT'S OUT OF DATE

                          -- STAFFORD BEER
 Job cpu time:       0 days 19 hours 44 minutes 17.5 seconds.
 Elapsed time:       0 days 19 hours 44 minutes 26.0 seconds.
 File lengths (MBytes):  RWF=   3816 Int=      0 D2E=      0 Chk=     73 Scr=      1
 Normal termination of Gaussian 16 at Sun Mar  8 03:15:15 2026.
