 Entering Gaussian System, Link 0=g16
 Input=/media/dr/Backup_Plus2/nanocar/AU100_surface/anth_me_100/dft/anth_me.com
 Output=/media/dr/Backup_Plus2/nanocar/AU100_surface/anth_me_100/dft/anth_me.log
 Initial command:
 /opt/g16/l1.exe "/home/dr/scratches/g16/Gau-695634.inp" -scrdir="/home/dr/scratches/g16/"
 Entering Link 1 = /opt/g16/l1.exe PID=    695637.
  
 Copyright (c) 1988-2017, Gaussian, Inc.  All Rights Reserved.
  
 This is part of the Gaussian(R) 16 program.  It is based on
 the Gaussian(R) 09 system (copyright 2009, Gaussian, Inc.),
 the Gaussian(R) 03 system (copyright 2003, Gaussian, Inc.),
 the Gaussian(R) 98 system (copyright 1998, Gaussian, Inc.),
 the Gaussian(R) 94 system (copyright 1995, Gaussian, Inc.),
 the Gaussian 92(TM) system (copyright 1992, Gaussian, Inc.),
 the Gaussian 90(TM) system (copyright 1990, Gaussian, Inc.),
 the Gaussian 88(TM) system (copyright 1988, Gaussian, Inc.),
 the Gaussian 86(TM) system (copyright 1986, Carnegie Mellon
 University), and the Gaussian 82(TM) system (copyright 1983,
 Carnegie Mellon University). Gaussian is a federally registered
 trademark of Gaussian, Inc.
  
 This software contains proprietary and confidential information,
 including trade secrets, belonging to Gaussian, Inc.
  
 This software is provided under written license and may be
 used, copied, transmitted, or stored only in accord with that
 written license.
  
 The following legend is applicable only to US Government
 contracts under FAR:
  
                    RESTRICTED RIGHTS LEGEND
  
 Use, reproduction and disclosure by the US Government is
 subject to restrictions as set forth in subparagraphs (a)
 and (c) of the Commercial Computer Software - Restricted
 Rights clause in FAR 52.227-19.
  
 Gaussian, Inc.
 340 Quinnipiac St., Bldg. 40, Wallingford CT 06492
  
  
 ---------------------------------------------------------------
 Warning -- This program may not be used in any manner that
 competes with the business of Gaussian, Inc. or will provide
 assistance to any competitor of Gaussian, Inc.  The licensee
 of this program is prohibited from giving any competitor of
 Gaussian, Inc. access to this program.  By using this program,
 the user acknowledges that Gaussian, Inc. is engaged in the
 business of creating and licensing software in the field of
 computational chemistry and represents and warrants to the
 licensee that it is not a competitor of Gaussian, Inc. and that
 it will not use this program in any manner prohibited above.
 ---------------------------------------------------------------
  

 Cite this work as:
 Gaussian 16, Revision B.01,
 M. J. Frisch, G. W. Trucks, H. B. Schlegel, G. E. Scuseria, 
 M. A. Robb, J. R. Cheeseman, G. Scalmani, V. Barone, 
 G. A. Petersson, H. Nakatsuji, X. Li, M. Caricato, A. V. Marenich, 
 J. Bloino, B. G. Janesko, R. Gomperts, B. Mennucci, H. P. Hratchian, 
 J. V. Ortiz, A. F. Izmaylov, J. L. Sonnenberg, D. Williams-Young, 
 F. Ding, F. Lipparini, F. Egidi, J. Goings, B. Peng, A. Petrone, 
 T. Henderson, D. Ranasinghe, V. G. Zakrzewski, J. Gao, N. Rega, 
 G. Zheng, W. Liang, M. Hada, M. Ehara, K. Toyota, R. Fukuda, 
 J. Hasegawa, M. Ishida, T. Nakajima, Y. Honda, O. Kitao, H. Nakai, 
 T. Vreven, K. Throssell, J. A. Montgomery, Jr., J. E. Peralta, 
 F. Ogliaro, M. J. Bearpark, J. J. Heyd, E. N. Brothers, K. N. Kudin, 
 V. N. Staroverov, T. A. Keith, R. Kobayashi, J. Normand, 
 K. Raghavachari, A. P. Rendell, J. C. Burant, S. S. Iyengar, 
 J. Tomasi, M. Cossi, J. M. Millam, M. Klene, C. Adamo, R. Cammi, 
 J. W. Ochterski, R. L. Martin, K. Morokuma, O. Farkas, 
 J. B. Foresman, and D. J. Fox, Gaussian, Inc., Wallingford CT, 2016.
 
 ******************************************
 Gaussian 16:  ES64L-G16RevB.01 20-Dec-2017
                 8-Mar-2026 
 ******************************************
 %chk=anth_me.chk
 -----------------------------------------
 # opt b3lyp/6-31+g(d,p) geom=connectivity
 -----------------------------------------
 1/18=20,19=15,26=3,38=1,57=2/1,3;
 2/9=110,12=2,17=6,18=5,40=1/2;
 3/5=1,6=6,7=111,11=2,25=1,30=1,71=1,74=-5/1,2,3;
 4//1;
 5/5=2,38=5/2;
 6/7=2,8=2,9=2,10=2,28=1/1;
 7//1,2,3,16;
 1/18=20,19=15,26=3/3(2);
 2/9=110/2;
 99//99;
 2/9=110/2;
 3/5=1,6=6,7=111,11=2,25=1,30=1,71=1,74=-5/1,2,3;
 4/5=5,16=3,69=1/1;
 5/5=2,38=5/2;
 7//1,2,3,16;
 1/18=20,19=15,26=3/3(-5);
 2/9=110/2;
 6/7=2,8=2,9=2,10=2,19=2,28=1/1;
 99/9=1/99;
 --------------------------------------
 UNITED ATOM STRUCTURE FOR MOLECULE UNL
 --------------------------------------
 Symbolic Z-matrix:
 Charge =  0 Multiplicity = 1
 H(PDBName=H25,ResName=ANT,ResNum=0)  6.778     2.798     0. 
 C(PDBName=C33,ResName=ANT,ResNum=0)  5.679     2.758     0. 
 C(PDBName=C32,ResName=ANT,ResNum=0)  4.982     2.734    -1.207 
 H(PDBName=H24,ResName=ANT,ResNum=0)  5.53      2.754    -2.161 
 C(PDBName=C31,ResName=ANT,ResNum=0)  3.589     2.681    -1.21 
 H(PDBName=H23,ResName=ANT,ResNum=0)  3.039     2.663    -2.164 
 C(PDBName=C30,ResName=ANT,ResNum=0)  2.883     2.655     0. 
 C(PDBName=C35,ResName=ANT,ResNum=0)  3.588     2.679     1.209 
 H(PDBName=H27,ResName=ANT,ResNum=0)  3.039     2.655     2.162 
 C(PDBName=C34,ResName=ANT,ResNum=0)  4.982     2.729     1.207 
 H(PDBName=H26,ResName=ANT,ResNum=0)  5.529     2.747     2.16 
 C(PDBName=C29,ResName=ANT,ResNum=0)  1.415     2.63     -0.001 
 C(PDBName=C28,ResName=ANT,ResNum=0)  0.711     3.806     0. 
 H(PDBName=H22,ResName=ANT,ResNum=0)  1.235     4.774    -0.001 
 C(PDBName=C27,ResName=ANT,ResNum=0) -0.71      3.806     0. 
 H(PDBName=H21,ResName=ANT,ResNum=0) -1.234     4.774    -0.002 
 C(PDBName=C20,ResName=ANT,ResNum=0) -1.415     2.631     0. 
 C(PDBName=C21,ResName=ANT,ResNum=0) -2.883     2.655     0. 
 C(PDBName=C22,ResName=ANT,ResNum=0) -3.588     2.683    -1.21 
 H(PDBName=H16,ResName=ANT,ResNum=0) -3.039     2.663    -2.163 
 C(PDBName=C23,ResName=ANT,ResNum=0) -4.981     2.733    -1.208 
 H(PDBName=H17,ResName=ANT,ResNum=0) -5.529     2.753    -2.161 
 C(PDBName=C24,ResName=ANT,ResNum=0) -5.679     2.758     0. 
 H(PDBName=H18,ResName=ANT,ResNum=0) -6.778     2.798     0. 
 C(PDBName=C25,ResName=ANT,ResNum=0) -4.981     2.729     1.207 
 H(PDBName=H19,ResName=ANT,ResNum=0) -5.529     2.748     2.16 
 C(PDBName=C26,ResName=ANT,ResNum=0) -3.588     2.679     1.21 
 H(PDBName=H20,ResName=ANT,ResNum=0) -3.039     2.655     2.163 
 C(PDBName=C19,ResName=ANT,ResNum=0) -0.715     1.373    -0.001 
 C(PDBName=C18,ResName=ANT,ResNum=0) -1.396     0.15     -0.001 
 H(PDBName=H15,ResName=ANT,ResNum=0) -2.5       0.15      0. 
 C(PDBName=C17,ResName=ANT,ResNum=0) -0.715    -1.072    -0.001 
 C(PDBName=C9,ResName=ANT,ResNum=0) -1.415    -2.33     -0.001 
 C(PDBName=C10,ResName=ANT,ResNum=0) -2.883    -2.356    -0.001 
 C(PDBName=C11,ResName=ANT,ResNum=0) -3.59     -2.384    -1.209 
 H(PDBName=H8,ResName=ANT,ResNum=0) -3.043    -2.359    -2.163 
 C(PDBName=C12,ResName=ANT,ResNum=0) -4.982    -2.44     -1.207 
 H(PDBName=H9,ResName=ANT,ResNum=0) -5.529    -2.46     -2.161 
 C(PDBName=C13,ResName=ANT,ResNum=0) -5.69     -2.472     0. 
 C(PDBName=C14,ResName=ANT,ResNum=0) -7.17     -2.523     0.001 
 C(PDBName=C15,ResName=ANT,ResNum=0) -4.981    -2.441     1.207 
 H(PDBName=H13,ResName=ANT,ResNum=0) -5.528    -2.461     2.161 
 C(PDBName=C16,ResName=ANT,ResNum=0) -3.589    -2.384     1.208 
 H(PDBName=H14,ResName=ANT,ResNum=0) -3.042    -2.361     2.162 
 C(PDBName=C8,ResName=ANT,ResNum=0) -0.71     -3.506     0. 
 H(PDBName=H7,ResName=ANT,ResNum=0) -1.235    -4.473    -0.001 
 C(PDBName=C7,ResName=ANT,ResNum=0)  0.71     -3.505     0.002 
 H(PDBName=H6,ResName=ANT,ResNum=0)  1.234    -4.474     0. 
 C(PDBName=C6,ResName=ANT,ResNum=0)  1.415    -2.33      0.003 
 C(PDBName=C38,ResName=ANT,ResNum=0)  0.714    -1.072     0.001 
 C(PDBName=C37,ResName=ANT,ResNum=0)  1.396     0.15      0. 
 C(PDBName=C36,ResName=ANT,ResNum=0)  0.715     1.373    -0.002 
 H(PDBName=H28,ResName=ANT,ResNum=0)  2.5       0.15      0.002 
 C(PDBName=C5,ResName=ANT,ResNum=0)  2.883    -2.356     0.001 
 C(PDBName=C4,ResName=ANT,ResNum=0)  3.59     -2.384     1.21 
 H(PDBName=H5,ResName=ANT,ResNum=0)  3.043    -2.36      2.164 
 C(PDBName=C3,ResName=ANT,ResNum=0)  4.982    -2.441     1.207 
 H(PDBName=H4,ResName=ANT,ResNum=0)  5.529    -2.46      2.161 
 C(PDBName=C2,ResName=ANT,ResNum=0)  5.69     -2.472     0. 
 C(PDBName=C1,ResName=ANT,ResNum=0)  7.17     -2.522     0. 
 C(PDBName=C40,ResName=ANT,ResNum=0)  4.981    -2.44     -1.206 
 H(PDBName=H30,ResName=ANT,ResNum=0)  5.527    -2.461    -2.161 
 C(PDBName=C39,ResName=ANT,ResNum=0)  3.589    -2.383    -1.208 
 H(PDBName=H29,ResName=ANT,ResNum=0)  3.041    -2.36     -2.161 
 
 Center=      0.00003125      0.14737500     -0.00006250
 Residue   1 PDB Number     0   ANT charge    0.00000000 layers R        AvRTP=      0.00000000      0.00000000      0.00000000

 GradGradGradGradGradGradGradGradGradGradGradGradGradGradGradGradGradGrad
 Berny optimization.
 Initialization pass.
                           ----------------------------
                           !    Initial Parameters    !
                           ! (Angstroms and Degrees)  !
 --------------------------                            --------------------------
 ! Name  Definition              Value          Derivative Info.                !
 --------------------------------------------------------------------------------
 ! R1    R(1,2)                  1.0997         estimate D2E/DX2                !
 ! R2    R(2,3)                  1.394          estimate D2E/DX2                !
 ! R3    R(2,10)                 1.3941         estimate D2E/DX2                !
 ! R4    R(3,4)                  1.1004         estimate D2E/DX2                !
 ! R5    R(3,5)                  1.394          estimate D2E/DX2                !
 ! R6    R(5,6)                  1.1013         estimate D2E/DX2                !
 ! R7    R(5,7)                  1.4011         estimate D2E/DX2                !
 ! R8    R(7,8)                  1.3997         estimate D2E/DX2                !
 ! R9    R(7,12)                 1.4682         estimate D2E/DX2                !
 ! R10   R(8,9)                  1.1001         estimate D2E/DX2                !
 ! R11   R(8,10)                 1.3949         estimate D2E/DX2                !
 ! R12   R(10,11)                1.099          estimate D2E/DX2                !
 ! R13   R(12,13)                1.3706         estimate D2E/DX2                !
 ! R14   R(12,52)                1.4388         estimate D2E/DX2                !
 ! R15   R(13,14)                1.1007         estimate D2E/DX2                !
 ! R16   R(13,15)                1.421          estimate D2E/DX2                !
 ! R17   R(15,16)                1.1007         estimate D2E/DX2                !
 ! R18   R(15,17)                1.3703         estimate D2E/DX2                !
 ! R19   R(17,18)                1.4682         estimate D2E/DX2                !
 ! R20   R(17,29)                1.4396         estimate D2E/DX2                !
 ! R21   R(18,19)                1.4007         estimate D2E/DX2                !
 ! R22   R(18,27)                1.4006         estimate D2E/DX2                !
 ! R23   R(19,20)                1.1            estimate D2E/DX2                !
 ! R24   R(19,21)                1.3939         estimate D2E/DX2                !
 ! R25   R(21,22)                1.0995         estimate D2E/DX2                !
 ! R26   R(21,23)                1.3954         estimate D2E/DX2                !
 ! R27   R(23,24)                1.0997         estimate D2E/DX2                !
 ! R28   R(23,25)                1.3946         estimate D2E/DX2                !
 ! R29   R(25,26)                1.0995         estimate D2E/DX2                !
 ! R30   R(25,27)                1.3939         estimate D2E/DX2                !
 ! R31   R(27,28)                1.1001         estimate D2E/DX2                !
 ! R32   R(29,30)                1.3998         estimate D2E/DX2                !
 ! R33   R(29,52)                1.43           estimate D2E/DX2                !
 ! R34   R(30,31)                1.104          estimate D2E/DX2                !
 ! R35   R(30,32)                1.3989         estimate D2E/DX2                !
 ! R36   R(32,33)                1.4396         estimate D2E/DX2                !
 ! R37   R(32,50)                1.429          estimate D2E/DX2                !
 ! R38   R(33,34)                1.4682         estimate D2E/DX2                !
 ! R39   R(33,45)                1.3711         estimate D2E/DX2                !
 ! R40   R(34,35)                1.4            estimate D2E/DX2                !
 ! R41   R(34,43)                1.4003         estimate D2E/DX2                !
 ! R42   R(35,36)                1.1            estimate D2E/DX2                !
 ! R43   R(35,37)                1.3931         estimate D2E/DX2                !
 ! R44   R(37,38)                1.0999         estimate D2E/DX2                !
 ! R45   R(37,39)                1.3997         estimate D2E/DX2                !
 ! R46   R(39,40)                1.4809         estimate D2E/DX2                !
 ! R47   R(39,41)                1.4002         estimate D2E/DX2                !
 ! R48   R(41,42)                1.0999         estimate D2E/DX2                !
 ! R49   R(41,43)                1.3932         estimate D2E/DX2                !
 ! R50   R(43,44)                1.0999         estimate D2E/DX2                !
 ! R51   R(45,46)                1.1003         estimate D2E/DX2                !
 ! R52   R(45,47)                1.42           estimate D2E/DX2                !
 ! R53   R(47,48)                1.1016         estimate D2E/DX2                !
 ! R54   R(47,49)                1.3703         estimate D2E/DX2                !
 ! R55   R(49,50)                1.4401         estimate D2E/DX2                !
 ! R56   R(49,54)                1.4682         estimate D2E/DX2                !
 ! R57   R(50,51)                1.3994         estimate D2E/DX2                !
 ! R58   R(51,52)                1.3998         estimate D2E/DX2                !
 ! R59   R(51,53)                1.104          estimate D2E/DX2                !
 ! R60   R(54,55)                1.4008         estimate D2E/DX2                !
 ! R61   R(54,63)                1.4003         estimate D2E/DX2                !
 ! R62   R(55,56)                1.1            estimate D2E/DX2                !
 ! R63   R(55,57)                1.3932         estimate D2E/DX2                !
 ! R64   R(57,58)                1.0999         estimate D2E/DX2                !
 ! R65   R(57,59)                1.3997         estimate D2E/DX2                !
 ! R66   R(59,60)                1.4808         estimate D2E/DX2                !
 ! R67   R(59,61)                1.3993         estimate D2E/DX2                !
 ! R68   R(61,62)                1.1003         estimate D2E/DX2                !
 ! R69   R(61,63)                1.3932         estimate D2E/DX2                !
 ! R70   R(63,64)                1.0996         estimate D2E/DX2                !
 ! A1    A(1,2,3)              120.0196         estimate D2E/DX2                !
 ! A2    A(1,2,10)             120.0259         estimate D2E/DX2                !
 ! A3    A(3,2,10)             119.9544         estimate D2E/DX2                !
 ! A4    A(2,3,4)              120.0899         estimate D2E/DX2                !
 ! A5    A(2,3,5)              120.1427         estimate D2E/DX2                !
 ! A6    A(4,3,5)              119.7672         estimate D2E/DX2                !
 ! A7    A(3,5,6)              120.1004         estimate D2E/DX2                !
 ! A8    A(3,5,7)              120.1559         estimate D2E/DX2                !
 ! A9    A(6,5,7)              119.7433         estimate D2E/DX2                !
 ! A10   A(5,7,8)              119.4588         estimate D2E/DX2                !
 ! A11   A(5,7,12)             120.2337         estimate D2E/DX2                !
 ! A12   A(8,7,12)             120.2962         estimate D2E/DX2                !
 ! A13   A(7,8,9)              119.7699         estimate D2E/DX2                !
 ! A14   A(7,8,10)             120.1798         estimate D2E/DX2                !
 ! A15   A(9,8,10)             120.05           estimate D2E/DX2                !
 ! A16   A(2,10,8)             120.108          estimate D2E/DX2                !
 ! A17   A(2,10,11)            120.106          estimate D2E/DX2                !
 ! A18   A(8,10,11)            119.7859         estimate D2E/DX2                !
 ! A19   A(7,12,13)            119.9307         estimate D2E/DX2                !
 ! A20   A(7,12,52)            120.0883         estimate D2E/DX2                !
 ! A21   A(13,12,52)           119.981          estimate D2E/DX2                !
 ! A22   A(12,13,14)           120.6659         estimate D2E/DX2                !
 ! A23   A(12,13,15)           120.9064         estimate D2E/DX2                !
 ! A24   A(14,13,15)           118.4277         estimate D2E/DX2                !
 ! A25   A(13,15,16)           118.4276         estimate D2E/DX2                !
 ! A26   A(13,15,17)           120.9638         estimate D2E/DX2                !
 ! A27   A(16,15,17)           120.6085         estimate D2E/DX2                !
 ! A28   A(15,17,18)           120.0271         estimate D2E/DX2                !
 ! A29   A(15,17,29)           119.943          estimate D2E/DX2                !
 ! A30   A(18,17,29)           120.0299         estimate D2E/DX2                !
 ! A31   A(17,18,19)           120.2375         estimate D2E/DX2                !
 ! A32   A(17,18,27)           120.2362         estimate D2E/DX2                !
 ! A33   A(19,18,27)           119.5122         estimate D2E/DX2                !
 ! A34   A(18,19,20)           119.7918         estimate D2E/DX2                !
 ! A35   A(18,19,21)           120.1642         estimate D2E/DX2                !
 ! A36   A(20,19,21)           120.0438         estimate D2E/DX2                !
 ! A37   A(19,21,22)           119.8343         estimate D2E/DX2                !
 ! A38   A(19,21,23)           120.1181         estimate D2E/DX2                !
 ! A39   A(22,21,23)           120.0476         estimate D2E/DX2                !
 ! A40   A(21,23,24)           120.0359         estimate D2E/DX2                !
 ! A41   A(21,23,25)           119.9025         estimate D2E/DX2                !
 ! A42   A(24,23,25)           120.0615         estimate D2E/DX2                !
 ! A43   A(23,25,26)           120.0236         estimate D2E/DX2                !
 ! A44   A(23,25,27)           120.1847         estimate D2E/DX2                !
 ! A45   A(26,25,27)           119.7916         estimate D2E/DX2                !
 ! A46   A(18,27,25)           120.1181         estimate D2E/DX2                !
 ! A47   A(18,27,28)           119.7905         estimate D2E/DX2                !
 ! A48   A(25,27,28)           120.0912         estimate D2E/DX2                !
 ! A49   A(17,29,30)           121.7965         estimate D2E/DX2                !
 ! A50   A(17,29,52)           119.0933         estimate D2E/DX2                !
 ! A51   A(30,29,52)           119.1103         estimate D2E/DX2                !
 ! A52   A(29,30,31)           119.1102         estimate D2E/DX2                !
 ! A53   A(29,30,32)           121.7596         estimate D2E/DX2                !
 ! A54   A(31,30,32)           119.1302         estimate D2E/DX2                !
 ! A55   A(30,32,33)           121.7766         estimate D2E/DX2                !
 ! A56   A(30,32,50)           119.1302         estimate D2E/DX2                !
 ! A57   A(33,32,50)           119.0932         estimate D2E/DX2                !
 ! A58   A(32,33,34)           120.1079         estimate D2E/DX2                !
 ! A59   A(32,33,45)           119.9645         estimate D2E/DX2                !
 ! A60   A(34,33,45)           119.9276         estimate D2E/DX2                !
 ! A61   A(33,34,35)           120.3505         estimate D2E/DX2                !
 ! A62   A(33,34,43)           120.2945         estimate D2E/DX2                !
 ! A63   A(35,34,43)           119.3389         estimate D2E/DX2                !
 ! A64   A(34,35,36)           119.7871         estimate D2E/DX2                !
 ! A65   A(34,35,37)           120.2763         estimate D2E/DX2                !
 ! A66   A(36,35,37)           119.9365         estimate D2E/DX2                !
 ! A67   A(35,37,38)           119.7629         estimate D2E/DX2                !
 ! A68   A(35,37,39)           120.5023         estimate D2E/DX2                !
 ! A69   A(38,37,39)           119.7347         estimate D2E/DX2                !
 ! A70   A(37,39,40)           120.4572         estimate D2E/DX2                !
 ! A71   A(37,39,41)           119.1254         estimate D2E/DX2                !
 ! A72   A(40,39,41)           120.414          estimate D2E/DX2                !
 ! A73   A(39,41,42)           119.7008         estimate D2E/DX2                !
 ! A74   A(39,41,43)           120.4952         estimate D2E/DX2                !
 ! A75   A(42,41,43)           119.804          estimate D2E/DX2                !
 ! A76   A(34,43,41)           120.2614         estimate D2E/DX2                !
 ! A77   A(34,43,44)           119.8468         estimate D2E/DX2                !
 ! A78   A(41,43,44)           119.8918         estimate D2E/DX2                !
 ! A79   A(33,45,46)           120.5594         estimate D2E/DX2                !
 ! A80   A(33,45,47)           120.9019         estimate D2E/DX2                !
 ! A81   A(46,45,47)           118.5386         estimate D2E/DX2                !
 ! A82   A(45,47,48)           118.3623         estimate D2E/DX2                !
 ! A83   A(45,47,49)           121.0041         estimate D2E/DX2                !
 ! A84   A(48,47,49)           120.6334         estimate D2E/DX2                !
 ! A85   A(47,49,50)           119.9081         estimate D2E/DX2                !
 ! A86   A(47,49,54)           119.949          estimate D2E/DX2                !
 ! A87   A(50,49,54)           120.1425         estimate D2E/DX2                !
 ! A88   A(32,50,49)           119.1281         estimate D2E/DX2                !
 ! A89   A(32,50,51)           119.1658         estimate D2E/DX2                !
 ! A90   A(49,50,51)           121.706          estimate D2E/DX2                !
 ! A91   A(50,51,52)           121.7238         estimate D2E/DX2                !
 ! A92   A(50,51,53)           119.1658         estimate D2E/DX2                !
 ! A93   A(52,51,53)           119.1103         estimate D2E/DX2                !
 ! A94   A(12,52,29)           119.1126         estimate D2E/DX2                !
 ! A95   A(12,52,51)           121.777          estimate D2E/DX2                !
 ! A96   A(29,52,51)           119.1102         estimate D2E/DX2                !
 ! A97   A(49,54,55)           120.2518         estimate D2E/DX2                !
 ! A98   A(49,54,63)           120.3722         estimate D2E/DX2                !
 ! A99   A(55,54,63)           119.361          estimate D2E/DX2                !
 ! A100  A(54,55,56)           119.8096         estimate D2E/DX2                !
 ! A101  A(54,55,57)           120.2144         estimate D2E/DX2                !
 ! A102  A(56,55,57)           119.9759         estimate D2E/DX2                !
 ! A103  A(55,57,58)           119.7198         estimate D2E/DX2                !
 ! A104  A(55,57,59)           120.5422         estimate D2E/DX2                !
 ! A105  A(58,57,59)           119.738          estimate D2E/DX2                !
 ! A106  A(57,59,60)           120.4172         estimate D2E/DX2                !
 ! A107  A(57,59,61)           119.1046         estimate D2E/DX2                !
 ! A108  A(60,59,61)           120.4743         estimate D2E/DX2                !
 ! A109  A(59,61,62)           119.7478         estimate D2E/DX2                !
 ! A110  A(59,61,63)           120.5584         estimate D2E/DX2                !
 ! A111  A(62,61,63)           119.6937         estimate D2E/DX2                !
 ! A112  A(54,63,61)           120.2188         estimate D2E/DX2                !
 ! A113  A(54,63,64)           119.7771         estimate D2E/DX2                !
 ! A114  A(61,63,64)           120.0041         estimate D2E/DX2                !
 ! D1    D(1,2,3,4)              0.0618         estimate D2E/DX2                !
 ! D2    D(1,2,3,5)            179.8906         estimate D2E/DX2                !
 ! D3    D(10,2,3,4)          -179.831          estimate D2E/DX2                !
 ! D4    D(10,2,3,5)            -0.0021         estimate D2E/DX2                !
 ! D5    D(1,2,10,8)           179.9647         estimate D2E/DX2                !
 ! D6    D(1,2,10,11)            0.0577         estimate D2E/DX2                !
 ! D7    D(3,2,10,8)            -0.1425         estimate D2E/DX2                !
 ! D8    D(3,2,10,11)          179.9504         estimate D2E/DX2                !
 ! D9    D(2,3,5,6)            179.9438         estimate D2E/DX2                !
 ! D10   D(2,3,5,7)              0.1604         estimate D2E/DX2                !
 ! D11   D(4,3,5,6)             -0.2268         estimate D2E/DX2                !
 ! D12   D(4,3,5,7)            179.9898         estimate D2E/DX2                !
 ! D13   D(3,5,7,8)             -0.173          estimate D2E/DX2                !
 ! D14   D(3,5,7,12)           178.6073         estimate D2E/DX2                !
 ! D15   D(6,5,7,8)           -179.9572         estimate D2E/DX2                !
 ! D16   D(6,5,7,12)            -1.1769         estimate D2E/DX2                !
 ! D17   D(5,7,8,9)           -179.7738         estimate D2E/DX2                !
 ! D18   D(5,7,8,10)             0.0286         estimate D2E/DX2                !
 ! D19   D(12,7,8,9)             1.4466         estimate D2E/DX2                !
 ! D20   D(12,7,8,10)         -178.751          estimate D2E/DX2                !
 ! D21   D(5,7,12,13)          -89.4093         estimate D2E/DX2                !
 ! D22   D(5,7,12,52)           90.638          estimate D2E/DX2                !
 ! D23   D(8,7,12,13)           89.3608         estimate D2E/DX2                !
 ! D24   D(8,7,12,52)          -90.5919         estimate D2E/DX2                !
 ! D25   D(7,8,10,2)             0.129          estimate D2E/DX2                !
 ! D26   D(7,8,10,11)         -179.9637         estimate D2E/DX2                !
 ! D27   D(9,8,10,2)           179.9308         estimate D2E/DX2                !
 ! D28   D(9,8,10,11)           -0.1618         estimate D2E/DX2                !
 ! D29   D(7,12,13,14)           0.1544         estimate D2E/DX2                !
 ! D30   D(7,12,13,15)        -179.9559         estimate D2E/DX2                !
 ! D31   D(52,12,13,14)       -179.8928         estimate D2E/DX2                !
 ! D32   D(52,12,13,15)         -0.0032         estimate D2E/DX2                !
 ! D33   D(7,12,52,29)         179.9099         estimate D2E/DX2                !
 ! D34   D(7,12,52,51)           0.0989         estimate D2E/DX2                !
 ! D35   D(13,12,52,29)         -0.0428         estimate D2E/DX2                !
 ! D36   D(13,12,52,51)       -179.8537         estimate D2E/DX2                !
 ! D37   D(12,13,15,16)       -179.8329         estimate D2E/DX2                !
 ! D38   D(12,13,15,17)          0.0487         estimate D2E/DX2                !
 ! D39   D(14,13,15,16)          0.0592         estimate D2E/DX2                !
 ! D40   D(14,13,15,17)        179.9408         estimate D2E/DX2                !
 ! D41   D(13,15,17,18)        180.0            estimate D2E/DX2                !
 ! D42   D(13,15,17,29)         -0.0459         estimate D2E/DX2                !
 ! D43   D(16,15,17,18)         -0.121          estimate D2E/DX2                !
 ! D44   D(16,15,17,29)        179.8331         estimate D2E/DX2                !
 ! D45   D(15,17,18,19)         89.2201         estimate D2E/DX2                !
 ! D46   D(15,17,18,27)        -89.4094         estimate D2E/DX2                !
 ! D47   D(29,17,18,19)        -90.734          estimate D2E/DX2                !
 ! D48   D(29,17,18,27)         90.6365         estimate D2E/DX2                !
 ! D49   D(15,17,29,30)        179.9983         estimate D2E/DX2                !
 ! D50   D(15,17,29,52)         -0.0008         estimate D2E/DX2                !
 ! D51   D(18,17,29,30)         -0.0477         estimate D2E/DX2                !
 ! D52   D(18,17,29,52)        179.9533         estimate D2E/DX2                !
 ! D53   D(17,18,19,20)          1.4403         estimate D2E/DX2                !
 ! D54   D(17,18,19,21)       -178.7045         estimate D2E/DX2                !
 ! D55   D(27,18,19,20)       -179.9203         estimate D2E/DX2                !
 ! D56   D(27,18,19,21)         -0.0651         estimate D2E/DX2                !
 ! D57   D(17,18,27,25)        178.7049         estimate D2E/DX2                !
 ! D58   D(17,18,27,28)         -1.4912         estimate D2E/DX2                !
 ! D59   D(19,18,27,25)          0.0654         estimate D2E/DX2                !
 ! D60   D(19,18,27,28)        179.8694         estimate D2E/DX2                !
 ! D61   D(18,19,21,22)       -179.8924         estimate D2E/DX2                !
 ! D62   D(18,19,21,23)          0.1249         estimate D2E/DX2                !
 ! D63   D(20,19,21,22)         -0.0375         estimate D2E/DX2                !
 ! D64   D(20,19,21,23)        179.9797         estimate D2E/DX2                !
 ! D65   D(19,21,23,24)        179.9668         estimate D2E/DX2                !
 ! D66   D(19,21,23,25)         -0.1843         estimate D2E/DX2                !
 ! D67   D(22,21,23,24)         -0.0159         estimate D2E/DX2                !
 ! D68   D(22,21,23,25)        179.833          estimate D2E/DX2                !
 ! D69   D(21,23,25,26)       -179.9627         estimate D2E/DX2                !
 ! D70   D(21,23,25,27)          0.1849         estimate D2E/DX2                !
 ! D71   D(24,23,25,26)         -0.1139         estimate D2E/DX2                !
 ! D72   D(24,23,25,27)       -179.9663         estimate D2E/DX2                !
 ! D73   D(23,25,27,18)         -0.1258         estimate D2E/DX2                !
 ! D74   D(23,25,27,28)       -179.9291         estimate D2E/DX2                !
 ! D75   D(26,25,27,18)       -179.9785         estimate D2E/DX2                !
 ! D76   D(26,25,27,28)          0.2181         estimate D2E/DX2                !
 ! D77   D(17,29,30,31)         -0.0126         estimate D2E/DX2                !
 ! D78   D(17,29,30,32)       -179.9532         estimate D2E/DX2                !
 ! D79   D(52,29,30,31)        179.9865         estimate D2E/DX2                !
 ! D80   D(52,29,30,32)          0.0459         estimate D2E/DX2                !
 ! D81   D(17,29,52,12)          0.0446         estimate D2E/DX2                !
 ! D82   D(17,29,52,51)        179.8607         estimate D2E/DX2                !
 ! D83   D(30,29,52,12)       -179.9544         estimate D2E/DX2                !
 ! D84   D(30,29,52,51)         -0.1383         estimate D2E/DX2                !
 ! D85   D(29,30,32,33)        180.0            estimate D2E/DX2                !
 ! D86   D(29,30,32,50)          0.0918         estimate D2E/DX2                !
 ! D87   D(31,30,32,33)          0.0594         estimate D2E/DX2                !
 ! D88   D(31,30,32,50)       -179.8488         estimate D2E/DX2                !
 ! D89   D(30,32,33,34)          0.0            estimate D2E/DX2                !
 ! D90   D(30,32,33,45)       -179.9518         estimate D2E/DX2                !
 ! D91   D(50,32,33,34)        179.9082         estimate D2E/DX2                !
 ! D92   D(50,32,33,45)         -0.0435         estimate D2E/DX2                !
 ! D93   D(30,32,50,49)        179.9089         estimate D2E/DX2                !
 ! D94   D(30,32,50,51)         -0.1363         estimate D2E/DX2                !
 ! D95   D(33,32,50,49)         -0.0018         estimate D2E/DX2                !
 ! D96   D(33,32,50,51)        179.953          estimate D2E/DX2                !
 ! D97   D(32,33,34,35)         90.734          estimate D2E/DX2                !
 ! D98   D(32,33,34,43)        -90.7342         estimate D2E/DX2                !
 ! D99   D(45,33,34,35)        -89.3142         estimate D2E/DX2                !
 ! D100  D(45,33,34,43)         89.2176         estimate D2E/DX2                !
 ! D101  D(32,33,45,46)       -179.9389         estimate D2E/DX2                !
 ! D102  D(32,33,45,47)          0.0449         estimate D2E/DX2                !
 ! D103  D(34,33,45,46)          0.1092         estimate D2E/DX2                !
 ! D104  D(34,33,45,47)       -179.9069         estimate D2E/DX2                !
 ! D105  D(33,34,35,36)         -1.6525         estimate D2E/DX2                !
 ! D106  D(33,34,35,37)        178.5062         estimate D2E/DX2                !
 ! D107  D(43,34,35,36)        179.8018         estimate D2E/DX2                !
 ! D108  D(43,34,35,37)         -0.0396         estimate D2E/DX2                !
 ! D109  D(33,34,43,41)       -178.4594         estimate D2E/DX2                !
 ! D110  D(33,34,43,44)          1.5336         estimate D2E/DX2                !
 ! D111  D(35,34,43,41)          0.0872         estimate D2E/DX2                !
 ! D112  D(35,34,43,44)       -179.9198         estimate D2E/DX2                !
 ! D113  D(34,35,37,38)        179.9007         estimate D2E/DX2                !
 ! D114  D(34,35,37,39)         -0.146          estimate D2E/DX2                !
 ! D115  D(36,35,37,38)          0.0596         estimate D2E/DX2                !
 ! D116  D(36,35,37,39)       -179.9871         estimate D2E/DX2                !
 ! D117  D(35,37,39,40)        179.6171         estimate D2E/DX2                !
 ! D118  D(35,37,39,41)          0.2808         estimate D2E/DX2                !
 ! D119  D(38,37,39,40)         -0.4296         estimate D2E/DX2                !
 ! D120  D(38,37,39,41)       -179.7658         estimate D2E/DX2                !
 ! D121  D(37,39,41,42)        179.7165         estimate D2E/DX2                !
 ! D122  D(37,39,41,43)         -0.2331         estimate D2E/DX2                !
 ! D123  D(40,39,41,42)          0.3799         estimate D2E/DX2                !
 ! D124  D(40,39,41,43)       -179.5697         estimate D2E/DX2                !
 ! D125  D(39,41,43,34)          0.0503         estimate D2E/DX2                !
 ! D126  D(39,41,43,44)       -179.9427         estimate D2E/DX2                !
 ! D127  D(42,41,43,34)       -179.8992         estimate D2E/DX2                !
 ! D128  D(42,41,43,44)          0.1078         estimate D2E/DX2                !
 ! D129  D(33,45,47,48)       -179.8378         estimate D2E/DX2                !
 ! D130  D(33,45,47,49)          0.0007         estimate D2E/DX2                !
 ! D131  D(46,45,47,48)          0.1464         estimate D2E/DX2                !
 ! D132  D(46,45,47,49)        179.9849         estimate D2E/DX2                !
 ! D133  D(45,47,49,50)         -0.0468         estimate D2E/DX2                !
 ! D134  D(45,47,49,54)       -179.8168         estimate D2E/DX2                !
 ! D135  D(48,47,49,50)        179.788          estimate D2E/DX2                !
 ! D136  D(48,47,49,54)          0.018          estimate D2E/DX2                !
 ! D137  D(47,49,50,32)          0.0465         estimate D2E/DX2                !
 ! D138  D(47,49,50,51)       -179.907          estimate D2E/DX2                !
 ! D139  D(54,49,50,32)        179.8161         estimate D2E/DX2                !
 ! D140  D(54,49,50,51)         -0.1375         estimate D2E/DX2                !
 ! D141  D(47,49,54,55)        -89.3604         estimate D2E/DX2                !
 ! D142  D(47,49,54,63)         89.2194         estimate D2E/DX2                !
 ! D143  D(50,49,54,55)         90.8701         estimate D2E/DX2                !
 ! D144  D(50,49,54,63)        -90.5501         estimate D2E/DX2                !
 ! D145  D(32,50,51,52)          0.0438         estimate D2E/DX2                !
 ! D146  D(32,50,51,53)        179.973          estimate D2E/DX2                !
 ! D147  D(49,50,51,52)        179.9973         estimate D2E/DX2                !
 ! D148  D(49,50,51,53)         -0.0735         estimate D2E/DX2                !
 ! D149  D(50,51,52,12)        179.9049         estimate D2E/DX2                !
 ! D150  D(50,51,52,29)          0.0939         estimate D2E/DX2                !
 ! D151  D(53,51,52,12)         -0.0243         estimate D2E/DX2                !
 ! D152  D(53,51,52,29)       -179.8353         estimate D2E/DX2                !
 ! D153  D(49,54,55,56)         -1.5911         estimate D2E/DX2                !
 ! D154  D(49,54,55,57)        178.4601         estimate D2E/DX2                !
 ! D155  D(63,54,55,56)        179.8148         estimate D2E/DX2                !
 ! D156  D(63,54,55,57)         -0.134          estimate D2E/DX2                !
 ! D157  D(49,54,63,61)       -178.4585         estimate D2E/DX2                !
 ! D158  D(49,54,63,64)          1.485          estimate D2E/DX2                !
 ! D159  D(55,54,63,61)          0.134          estimate D2E/DX2                !
 ! D160  D(55,54,63,64)       -179.9226         estimate D2E/DX2                !
 ! D161  D(54,55,57,58)        179.8412         estimate D2E/DX2                !
 ! D162  D(54,55,57,59)         -0.0504         estimate D2E/DX2                !
 ! D163  D(56,55,57,58)         -0.1075         estimate D2E/DX2                !
 ! D164  D(56,55,57,59)       -179.9992         estimate D2E/DX2                !
 ! D165  D(55,57,59,60)        179.5249         estimate D2E/DX2                !
 ! D166  D(55,57,59,61)          0.2332         estimate D2E/DX2                !
 ! D167  D(58,57,59,60)         -0.3668         estimate D2E/DX2                !
 ! D168  D(58,57,59,61)       -179.6585         estimate D2E/DX2                !
 ! D169  D(57,59,61,62)        179.8264         estimate D2E/DX2                !
 ! D170  D(57,59,61,63)         -0.2333         estimate D2E/DX2                !
 ! D171  D(60,59,61,62)          0.5351         estimate D2E/DX2                !
 ! D172  D(60,59,61,63)       -179.5246         estimate D2E/DX2                !
 ! D173  D(59,61,63,54)          0.0507         estimate D2E/DX2                !
 ! D174  D(59,61,63,64)       -179.8927         estimate D2E/DX2                !
 ! D175  D(62,61,63,54)        179.991          estimate D2E/DX2                !
 ! D176  D(62,61,63,64)          0.0476         estimate D2E/DX2                !
 --------------------------------------------------------------------------------
 Trust Radius=3.00D-01 FncErr=1.00D-07 GrdErr=1.00D-06 EigMax=2.50D+02 EigMin=1.00D-04
 Number of steps in this run=    370 maximum allowed number of steps=    384.
 GradGradGradGradGradGradGradGradGradGradGradGradGradGradGradGradGradGrad

 Stoichiometry    C40H24
 Framework group  C1[X(C40H24)]
 Deg. of freedom   186
 Full point group                 C1      NOp   1
 Largest Abelian subgroup         C1      NOp   1
 Largest concise Abelian subgroup C1      NOp   1
                         Standard orientation:                         
 ---------------------------------------------------------------------
 Center     Atomic      Atomic             Coordinates (Angstroms)
 Number     Number       Type             X           Y           Z
 ---------------------------------------------------------------------
      1          1           0       -6.778111    2.750874   -0.000412
      2          6           0       -5.679109    2.710944   -0.000457
      3          6           0       -4.982046    2.687313    1.206514
      4          1           0       -5.530000    2.707534    2.160537
      5          6           0       -3.589043    2.634402    1.209458
      6          1           0       -3.038994    2.616694    2.163435
      7          6           0       -2.883102    2.608122   -0.000570
      8          6           0       -3.588165    2.631753   -1.209541
      9          1           0       -3.039211    2.607532   -2.162562
     10          6           0       -4.982168    2.681664   -1.207484
     11          1           0       -5.529217    2.699373   -2.160461
     12          6           0       -1.415101    2.583217    0.000362
     13          6           0       -0.711176    3.759261   -0.000989
     14          1           0       -1.235238    4.727228   -0.000222
     15          6           0        0.709824    3.759352   -0.001061
     16          1           0        1.233762    4.727386    0.000653
     17          6           0        1.414899    2.584397   -0.000781
     18          6           0        2.882898    2.608491   -0.000861
     19          6           0        3.587957    2.636861    1.209096
     20          1           0        3.039006    2.617082    2.162129
     21          6           0        4.980954    2.686949    1.207012
     22          1           0        5.529000    2.707240    2.159979
     23          6           0        5.678891    2.711670   -0.001030
     24          1           0        6.777889    2.751740   -0.001096
     25          6           0        4.980832    2.682301   -1.207987
     26          1           0        5.528783    2.701080   -2.161019
     27          6           0        3.587835    2.632211   -1.210903
     28          1           0        3.038789    2.607920   -2.163869
     29          6           0        0.714980    1.326353    0.000593
     30          6           0        1.396058    0.103396    0.000887
     31          1           0        2.500058    0.103467   -0.000169
     32          6           0        0.715136   -1.118647    0.001249
     33          6           0        1.415216   -2.376602    0.001552
     34          6           0        2.883218   -2.402509    0.001485
     35          6           0        3.590281   -2.430139    1.209456
     36          1           0        3.043327   -2.404918    2.163477
     37          6           0        4.982284   -2.486051    1.207401
     38          1           0        5.529334   -2.505759    2.161379
     39          6           0        5.690225   -2.518329    0.000374
     40          6           0        7.170229   -2.569235   -0.000687
     41          6           0        4.981163   -2.487699   -1.206598
     42          1           0        5.528116   -2.507920   -2.160620
     43          6           0        3.589159   -2.430788   -1.207543
     44          1           0        3.042109   -2.408079   -2.161522
     45          6           0        0.710291   -3.552648    0.000903
     46          1           0        1.235353   -4.519614    0.002136
     47          6           0       -0.709709   -3.551739   -0.001026
     48          1           0       -1.233647   -4.520772    0.001261
     49          6           0       -1.414784   -2.376784   -0.002305
     50          6           0       -0.713864   -1.118739   -0.000679
     51          6           0       -1.395942    0.103218    0.000028
     52          6           0       -0.715020    1.326262    0.001665
     53          1           0       -2.499942    0.103147   -0.001917
     54          6           0       -2.882782   -2.402878   -0.000224
     55          6           0       -3.589841   -2.431247   -1.209181
     56          1           0       -3.042891   -2.407469   -2.163215
     57          6           0       -4.981837   -2.488336   -1.206096
     58          1           0       -5.528884   -2.507627   -2.160063
     59          6           0       -5.689775   -2.519057    0.000948
     60          6           0       -7.169771   -2.569151    0.001036
     61          6           0       -4.980716   -2.486688    1.206904
     62          1           0       -5.526666   -2.507466    2.161937
     63          6           0       -3.588719   -2.429598    1.208818
     64          1           0       -3.040673   -2.406307    2.161785
 ---------------------------------------------------------------------
 Rotational constants (GHZ):           0.1395584           0.0649410           0.0472661
 Standard basis: 6-31+G(d,p) (6D, 7F)
 There are   880 symmetry adapted cartesian basis functions of A   symmetry.
 There are   880 symmetry adapted basis functions of A   symmetry.
   880 basis functions,  1448 primitive gaussians,   880 cartesian basis functions
   132 alpha electrons      132 beta electrons
       nuclear repulsion energy      3932.6192540277 Hartrees.
 NAtoms=   64 NActive=   64 NUniq=   64 SFac= 1.00D+00 NAtFMM=   60 NAOKFM=T Big=T
 Integral buffers will be    131072 words long.
 Raffenetti 2 integral format.
 Two-electron integral symmetry is turned on.
 One-electron integrals computed using PRISM.
 NBasis=   880 RedAO= T EigKep=  1.09D-06  NBF=   880
 NBsUse=   863 1.00D-06 EigRej=  9.95D-07 NBFU=   863
 ExpMin= 4.38D-02 ExpMax= 3.05D+03 ExpMxC= 4.57D+02 IAcc=3 IRadAn=         5 AccDes= 0.00D+00
 Harris functional with IExCor=  402 and IRadAn=       5 diagonalized for initial guess.
 HarFok:  IExCor=  402 AccDes= 0.00D+00 IRadAn=         5 IDoV= 1 UseB2=F ITyADJ=14
 ICtDFT=  3500011 ScaDFX=  1.000000  1.000000  1.000000  1.000000
 FoFCou: FMM=F IPFlag=           0 FMFlag=      100000 FMFlg1=        2001
         NFxFlg=           0 DoJE=T BraDBF=F KetDBF=T FulRan=T
         wScrn=  0.000000 ICntrl=       500 IOpCl=  0 I1Cent=   200000004 NGrid=           0
         NMat0=    1 NMatS0=      1 NMatT0=    0 NMatD0=    1 NMtDS0=    0 NMtDT0=    0
 Petite list used in FoFCou.
 Requested convergence on RMS density matrix=1.00D-08 within 128 cycles.
 Requested convergence on MAX density matrix=1.00D-06.
 Requested convergence on             energy=1.00D-06.
 No special actions if energy rises.
 EnCoef did     3 forward-backward iterations
 EnCoef did     4 forward-backward iterations
 EnCoef did     8 forward-backward iterations
 EnCoef did   100 forward-backward iterations
 EnCoef did   100 forward-backward iterations
 EnCoef did   100 forward-backward iterations
 EnCoef did   100 forward-backward iterations
 EnCoef did   100 forward-backward iterations
 EnCoef did    71 forward-backward iterations
 Restarting incremental Fock formation.
 Rare condition: small coef for last iteration:  0.000D+00
 EnCoef did   100 forward-backward iterations
 Rare condition: small coef for last iteration:  0.000D+00
 EnCoef did   100 forward-backward iterations
 EnCoef did    10 forward-backward iterations
 EnCoef did    23 forward-backward iterations
 Rare condition: small coef for last iteration: -0.222D-15
 EnCoef did   100 forward-backward iterations
 EnCoef did    27 forward-backward iterations
 EnCoef did   100 forward-backward iterations
 EnCoef did   100 forward-backward iterations
 EnCoef did   100 forward-backward iterations
 EnCoef did   100 forward-backward iterations
 Rare condition: small coef for last iteration:  0.000D+00
 Rare condition: small coef for last iteration:  0.000D+00
 EnCoef did   100 forward-backward iterations
 Restarting incremental Fock formation.
 EnCoef did   100 forward-backward iterations
 Rare condition: small coef for last iteration:  0.000D+00
 Rare condition: small coef for last iteration:  0.000D+00
 EnCoef did   100 forward-backward iterations
 EnCoef did   100 forward-backward iterations
 EnCoef did   100 forward-backward iterations
 Rare condition: small coef for last iteration: -0.932D-16
 EnCoef did   100 forward-backward iterations
 Rare condition: small coef for last iteration:  0.000D+00
 Restarting incremental Fock formation.
 SCF Done:  E(RB3LYP) =  -1538.41390147     A.U. after   64 cycles
            NFock= 64  Conv=0.57D-08     -V/T= 2.0097

 **********************************************************************

            Population analysis using the SCF Density.

 **********************************************************************

 Orbital symmetries:
       Occupied  (A) (A) (A) (A) (A) (A) (A) (A) (A) (A) (A) (A)
                 (A) (A) (A) (A) (A) (A) (A) (A) (A) (A) (A) (A)
                 (A) (A) (A) (A) (A) (A) (A) (A) (A) (A) (A) (A)
                 (A) (A) (A) (A) (A) (A) (A) (A) (A) (A) (A) (A)
                 (A) (A) (A) (A) (A) (A) (A) (A) (A) (A) (A) (A)
                 (A) (A) (A) (A) (A) (A) (A) (A) (A) (A) (A) (A)
                 (A) (A) (A) (A) (A) (A) (A) (A) (A) (A) (A) (A)
                 (A) (A) (A) (A) (A) (A) (A) (A) (A) (A) (A) (A)
                 (A) (A) (A) (A) (A) (A) (A) (A) (A) (A) (A) (A)
                 (A) (A) (A) (A) (A) (A) (A) (A) (A) (A) (A) (A)
                 (A) (A) (A) (A) (A) (A) (A) (A) (A) (A) (A) (A)
       Virtual   (A) (A) (A) (A) (A) (A) (A) (A) (A) (A) (A) (A)
                 (A) (A) (A) (A) (A) (A) (A) (A) (A) (A) (A) (A)
                 (A) (A) (A) (A) (A) (A) (A) (A) (A) (A) (A) (A)
                 (A) (A) (A) (A) (A) (A) (A) (A) (A) (A) (A) (A)
                 (A) (A) (A) (A) (A) (A) (A) (A) (A) (A) (A) (A)
                 (A) (A) (A) (A) (A) (A) (A) (A) (A) (A) (A) (A)
                 (A) (A) (A) (A) (A) (A) (A) (A) (A) (A) (A) (A)
                 (A) (A) (A) (A) (A) (A) (A) (A) (A) (A) (A) (A)
                 (A) (A) (A) (A) (A) (A) (A) (A) (A) (A) (A) (A)
                 (A) (A) (A) (A) (A) (A) (A) (A) (A) (A) (A) (A)
                 (A) (A) (A) (A) (A) (A) (A) (A) (A) (A) (A) (A)
                 (A) (A) (A) (A) (A) (A) (A) (A) (A) (A) (A) (A)
                 (A) (A) (A) (A) (A) (A) (A) (A) (A) (A) (A) (A)
                 (A) (A) (A) (A) (A) (A) (A) (A) (A) (A) (A) (A)
                 (A) (A) (A) (A) (A) (A) (A) (A) (A) (A) (A) (A)
                 (A) (A) (A) (A) (A) (A) (A) (A) (A) (A) (A) (A)
                 (A) (A) (A) (A) (A) (A) (A) (A) (A) (A) (A) (A)
                 (A) (A) (A) (A) (A) (A) (A) (A) (A) (A) (A) (A)
                 (A) (A) (A) (A) (A) (A) (A) (A) (A) (A) (A) (A)
                 (A) (A) (A) (A) (A) (A) (A) (A) (A) (A) (A) (A)
                 (A) (A) (A) (A) (A) (A) (A) (A) (A) (A) (A) (A)
                 (A) (A) (A) (A) (A) (A) (A) (A) (A) (A) (A) (A)
                 (A) (A) (A) (A) (A) (A) (A) (A) (A) (A) (A) (A)
                 (A) (A) (A) (A) (A) (A) (A) (A) (A) (A) (A) (A)
                 (A) (A) (A) (A) (A) (A) (A) (A) (A) (A) (A) (A)
                 (A) (A) (A) (A) (A) (A) (A) (A) (A) (A) (A) (A)
                 (A) (A) (A) (A) (A) (A) (A) (A) (A) (A) (A) (A)
                 (A) (A) (A) (A) (A) (A) (A) (A) (A) (A) (A) (A)
                 (A) (A) (A) (A) (A) (A) (A) (A) (A) (A) (A) (A)
                 (A) (A) (A) (A) (A) (A) (A) (A) (A) (A) (A) (A)
                 (A) (A) (A) (A) (A) (A) (A) (A) (A) (A) (A) (A)
                 (A) (A) (A) (A) (A) (A) (A) (A) (A) (A) (A) (A)
                 (A) (A) (A) (A) (A) (A) (A) (A) (A) (A) (A) (A)
                 (A) (A) (A) (A) (A) (A) (A) (A) (A) (A) (A) (A)
                 (A) (A) (A) (A) (A) (A) (A) (A) (A) (A) (A) (A)
                 (A) (A) (A) (A) (A) (A) (A) (A) (A) (A) (A) (A)
                 (A) (A) (A) (A) (A) (A) (A) (A) (A) (A) (A) (A)
                 (A) (A) (A) (A) (A) (A) (A) (A) (A) (A) (A) (A)
                 (A) (A) (A) (A) (A) (A) (A) (A) (A) (A) (A) (A)
                 (A) (A) (A) (A) (A) (A) (A) (A) (A) (A) (A) (A)
                 (A) (A) (A) (A) (A) (A) (A) (A) (A) (A) (A) (A)
                 (A) (A) (A) (A) (A) (A) (A) (A) (A) (A) (A) (A)
                 (A) (A) (A) (A) (A) (A) (A) (A) (A) (A) (A) (A)
                 (A) (A) (A) (A) (A) (A) (A) (A) (A) (A) (A) (A)
                 (A) (A) (A) (A) (A) (A) (A) (A) (A) (A) (A) (A)
                 (A) (A) (A) (A) (A) (A) (A) (A) (A) (A) (A) (A)
                 (A) (A) (A) (A) (A) (A) (A) (A) (A) (A) (A) (A)
                 (A) (A) (A) (A) (A) (A) (A) (A) (A) (A) (A) (A)
                 (A) (A) (A) (A) (A) (A) (A) (A) (A) (A) (A) (A)
                 (A) (A) (A) (A) (A) (A) (A) (A) (A) (A) (A) (A)
                 (A) (A) (A) (A) (A) (A) (A) (A) (A) (A) (A) (A)
                 (A) (A) (A) (A) (A) (A) (A) (A) (A) (A) (A) (A)
                 (A) (A) (A) (A) (A) (A) (A) (A) (A) (A) (A) (A)
                 (A) (A) (A) (A) (A) (A) (A) (A) (A) (A) (A) (A)
                 (A) (A) (A) (A) (A) (A) (A) (A) (A) (A) (A) (A)
                 (A) (A) (A) (A) (A) (A) (A) (A) (A) (A) (A) (A)
                 (A) (A) (A) (A) (A) (A) (A) (A) (A) (A) (A) (A)
                 (A) (A) (A) (A) (A) (A) (A) (A) (A) (A) (A) (A)
                 (A) (A) (A) (A) (A) (A) (A) (A) (A) (A) (A) (A)
                 (A) (A) (A) (A) (A) (A) (A) (A) (A) (A) (A) (A)
                 (A) (A) (A) (A) (A) (A) (A) (A) (A) (A) (A)
 The electronic state is 1-A.
 Alpha  occ. eigenvalues --  -10.28395 -10.28393 -10.22673 -10.22669 -10.22258
 Alpha  occ. eigenvalues --  -10.22254 -10.22252 -10.22251 -10.21874 -10.21868
 Alpha  occ. eigenvalues --  -10.21703 -10.21701 -10.21694 -10.21692 -10.21473
 Alpha  occ. eigenvalues --  -10.21460 -10.21432 -10.21402 -10.21263 -10.21220
 Alpha  occ. eigenvalues --  -10.20872 -10.20869 -10.20812 -10.20765 -10.20725
 Alpha  occ. eigenvalues --  -10.20719 -10.20307 -10.20304 -10.20304 -10.20258
 Alpha  occ. eigenvalues --  -10.20226 -10.20222 -10.20213 -10.20211 -10.20145
 Alpha  occ. eigenvalues --  -10.20138 -10.20134 -10.20132 -10.20089 -10.20074
 Alpha  occ. eigenvalues --   -0.90767  -0.89184  -0.89096  -0.87526  -0.87142
 Alpha  occ. eigenvalues --   -0.85671  -0.82777  -0.82197  -0.80759  -0.79091
 Alpha  occ. eigenvalues --   -0.77063  -0.77062  -0.76497  -0.76012  -0.75481
 Alpha  occ. eigenvalues --   -0.75432  -0.75415  -0.73661  -0.71079  -0.68511
 Alpha  occ. eigenvalues --   -0.65538  -0.64935  -0.63491  -0.63406  -0.63253
 Alpha  occ. eigenvalues --   -0.63240  -0.61243  -0.61226  -0.60256  -0.59416
 Alpha  occ. eigenvalues --   -0.57655  -0.57544  -0.57329  -0.55383  -0.53652
 Alpha  occ. eigenvalues --   -0.53335  -0.52436  -0.50653  -0.49835  -0.48564
 Alpha  occ. eigenvalues --   -0.48405  -0.48040  -0.47364  -0.47067  -0.46389
 Alpha  occ. eigenvalues --   -0.46378  -0.46247  -0.46149  -0.45498  -0.44836
 Alpha  occ. eigenvalues --   -0.44292  -0.44270  -0.44211  -0.44185  -0.42793
 Alpha  occ. eigenvalues --   -0.42754  -0.42508  -0.42061  -0.40967  -0.40376
 Alpha  occ. eigenvalues --   -0.40089  -0.39345  -0.39315  -0.39072  -0.38147
 Alpha  occ. eigenvalues --   -0.37819  -0.37232  -0.37216  -0.37049  -0.36448
 Alpha  occ. eigenvalues --   -0.35542  -0.35438  -0.35009  -0.34966  -0.34833
 Alpha  occ. eigenvalues --   -0.32794  -0.31791  -0.30528  -0.30406  -0.30360
 Alpha  occ. eigenvalues --   -0.29551  -0.29464  -0.27893  -0.27872  -0.26427
 Alpha  occ. eigenvalues --   -0.26322  -0.26255  -0.25797  -0.25689  -0.25588
 Alpha  occ. eigenvalues --   -0.20769  -0.15742
 Alpha virt. eigenvalues --   -0.14704  -0.12377  -0.12352  -0.08016  -0.04353
 Alpha virt. eigenvalues --   -0.03418  -0.02828  -0.02022  -0.01906  -0.01886
 Alpha virt. eigenvalues --   -0.01529  -0.00968  -0.00956  -0.00828  -0.00709
 Alpha virt. eigenvalues --    0.00051   0.00723   0.00929   0.01335   0.01434
 Alpha virt. eigenvalues --    0.01435   0.01619   0.02179   0.02225   0.02613
 Alpha virt. eigenvalues --    0.03123   0.03134   0.03478   0.03714   0.03818
 Alpha virt. eigenvalues --    0.04207   0.04494   0.04510   0.04793   0.05224
 Alpha virt. eigenvalues --    0.05254   0.05380   0.05716   0.06166   0.06344
 Alpha virt. eigenvalues --    0.06489   0.07028   0.07273   0.07589   0.07623
 Alpha virt. eigenvalues --    0.07826   0.08009   0.08070   0.08412   0.08579
 Alpha virt. eigenvalues --    0.09250   0.09781   0.09963   0.10047   0.10049
 Alpha virt. eigenvalues --    0.10287   0.10528   0.10822   0.10852   0.10890
 Alpha virt. eigenvalues --    0.11738   0.12002   0.12012   0.12248   0.12815
 Alpha virt. eigenvalues --    0.12840   0.13022   0.13023   0.13199   0.13310
 Alpha virt. eigenvalues --    0.13314   0.13421   0.13717   0.14043   0.14175
 Alpha virt. eigenvalues --    0.14268   0.14300   0.14764   0.14813   0.15099
 Alpha virt. eigenvalues --    0.15104   0.15547   0.15658   0.15900   0.15972
 Alpha virt. eigenvalues --    0.16174   0.16908   0.16930   0.16988   0.16994
 Alpha virt. eigenvalues --    0.17002   0.17793   0.17888   0.18106   0.18189
 Alpha virt. eigenvalues --    0.18232   0.18473   0.18958   0.19047   0.19194
 Alpha virt. eigenvalues --    0.19327   0.19650   0.19726   0.19927   0.19977
 Alpha virt. eigenvalues --    0.20217   0.20284   0.20558   0.20561   0.20843
 Alpha virt. eigenvalues --    0.21233   0.21430   0.21488   0.21591   0.21832
 Alpha virt. eigenvalues --    0.21957   0.22360   0.22408   0.22460   0.22588
 Alpha virt. eigenvalues --    0.22616   0.22797   0.23081   0.23233   0.23547
 Alpha virt. eigenvalues --    0.23594   0.23730   0.23745   0.23830   0.23961
 Alpha virt. eigenvalues --    0.24393   0.24415   0.24447   0.24821   0.24937
 Alpha virt. eigenvalues --    0.24981   0.25139   0.25254   0.25373   0.25409
 Alpha virt. eigenvalues --    0.25644   0.25918   0.26032   0.26092   0.26460
 Alpha virt. eigenvalues --    0.27027   0.27116   0.27138   0.27414   0.27476
 Alpha virt. eigenvalues --    0.27797   0.27878   0.27994   0.28360   0.28375
 Alpha virt. eigenvalues --    0.28597   0.28772   0.29088   0.29312   0.29511
 Alpha virt. eigenvalues --    0.30170   0.30226   0.30439   0.30442   0.30596
 Alpha virt. eigenvalues --    0.30602   0.30752   0.30896   0.30952   0.31467
 Alpha virt. eigenvalues --    0.31706   0.31950   0.31955   0.32153   0.32344
 Alpha virt. eigenvalues --    0.32466   0.32786   0.32919   0.33077   0.33337
 Alpha virt. eigenvalues --    0.33765   0.33964   0.34194   0.34342   0.34750
 Alpha virt. eigenvalues --    0.34820   0.35246   0.35496   0.35551   0.35628
 Alpha virt. eigenvalues --    0.35705   0.35962   0.36095   0.36604   0.36921
 Alpha virt. eigenvalues --    0.36931   0.37119   0.37499   0.37850   0.37932
 Alpha virt. eigenvalues --    0.38232   0.38350   0.38567   0.39694   0.40095
 Alpha virt. eigenvalues --    0.40538   0.42013   0.42163   0.42448   0.42639
 Alpha virt. eigenvalues --    0.43558   0.43847   0.44378   0.46098   0.46294
 Alpha virt. eigenvalues --    0.47645   0.47796   0.49731   0.50773   0.51569
 Alpha virt. eigenvalues --    0.51990   0.53053   0.54817   0.55315   0.55910
 Alpha virt. eigenvalues --    0.55938   0.57059   0.58427   0.58798   0.60807
 Alpha virt. eigenvalues --    0.60830   0.62035   0.64031   0.66514   0.67183
 Alpha virt. eigenvalues --    0.67340   0.67957   0.68521   0.68828   0.68903
 Alpha virt. eigenvalues --    0.69130   0.69674   0.70135   0.70617   0.70967
 Alpha virt. eigenvalues --    0.71293   0.71587   0.71736   0.71936   0.71966
 Alpha virt. eigenvalues --    0.72334   0.72568   0.72576   0.72610   0.73261
 Alpha virt. eigenvalues --    0.73764   0.74022   0.74056   0.74743   0.74983
 Alpha virt. eigenvalues --    0.75006   0.75516   0.75532   0.75997   0.76707
 Alpha virt. eigenvalues --    0.77271   0.77433   0.77613   0.77646   0.77673
 Alpha virt. eigenvalues --    0.78339   0.78738   0.78940   0.79350   0.79798
 Alpha virt. eigenvalues --    0.79820   0.79861   0.80231   0.80247   0.80407
 Alpha virt. eigenvalues --    0.80523   0.81022   0.81157   0.81259   0.81443
 Alpha virt. eigenvalues --    0.81956   0.81981   0.82436   0.82598   0.82679
 Alpha virt. eigenvalues --    0.83757   0.84167   0.84183   0.84360   0.84436
 Alpha virt. eigenvalues --    0.85101   0.85249   0.85419   0.85431   0.85843
 Alpha virt. eigenvalues --    0.86390   0.86759   0.86914   0.87271   0.87372
 Alpha virt. eigenvalues --    0.87504   0.87872   0.88558   0.89583   0.89776
 Alpha virt. eigenvalues --    0.90196   0.91157   0.91327   0.91481   0.91834
 Alpha virt. eigenvalues --    0.92017   0.92316   0.93932   0.94714   0.94819
 Alpha virt. eigenvalues --    0.95085   0.95215   0.95278   0.95422   0.95987
 Alpha virt. eigenvalues --    0.96478   0.96530   0.96850   0.97229   0.97516
 Alpha virt. eigenvalues --    0.97553   0.99204   0.99366   0.99989   1.00401
 Alpha virt. eigenvalues --    1.00641   1.00702   1.00917   1.02400   1.03423
 Alpha virt. eigenvalues --    1.04112   1.04591   1.05444   1.06176   1.08457
 Alpha virt. eigenvalues --    1.09104   1.09248   1.10275   1.11495   1.11716
 Alpha virt. eigenvalues --    1.11842   1.11963   1.13103   1.13159   1.14012
 Alpha virt. eigenvalues --    1.14457   1.16125   1.17393   1.17408   1.17464
 Alpha virt. eigenvalues --    1.17936   1.18007   1.18344   1.18659   1.19726
 Alpha virt. eigenvalues --    1.20814   1.21167   1.21220   1.21564   1.22432
 Alpha virt. eigenvalues --    1.22616   1.22714   1.23017   1.23172   1.23743
 Alpha virt. eigenvalues --    1.24022   1.24449   1.24926   1.25312   1.25789
 Alpha virt. eigenvalues --    1.25909   1.26142   1.27215   1.27521   1.27606
 Alpha virt. eigenvalues --    1.28307   1.28603   1.30144   1.30866   1.31098
 Alpha virt. eigenvalues --    1.31371   1.31535   1.31624   1.33504   1.33833
 Alpha virt. eigenvalues --    1.34380   1.35397   1.35765   1.37021   1.37502
 Alpha virt. eigenvalues --    1.37765   1.38056   1.38298   1.38690   1.39155
 Alpha virt. eigenvalues --    1.39244   1.39540   1.39562   1.40162   1.40644
 Alpha virt. eigenvalues --    1.40958   1.41132   1.41384   1.41746   1.42340
 Alpha virt. eigenvalues --    1.42883   1.43118   1.43365   1.43527   1.43655
 Alpha virt. eigenvalues --    1.44145   1.44315   1.44367   1.44381   1.45206
 Alpha virt. eigenvalues --    1.46020   1.46630   1.46842   1.47698   1.47872
 Alpha virt. eigenvalues --    1.48243   1.53202   1.54082   1.54559   1.55486
 Alpha virt. eigenvalues --    1.59489   1.62182   1.63602   1.63832   1.65063
 Alpha virt. eigenvalues --    1.68364   1.68819   1.68972   1.68994   1.69568
 Alpha virt. eigenvalues --    1.69764   1.71562   1.71844   1.73615   1.74680
 Alpha virt. eigenvalues --    1.78634   1.79326   1.80298   1.80466   1.80753
 Alpha virt. eigenvalues --    1.81174   1.81563   1.82444   1.82889   1.82993
 Alpha virt. eigenvalues --    1.83318   1.83469   1.83473   1.84641   1.84966
 Alpha virt. eigenvalues --    1.86135   1.87481   1.87537   1.87761   1.88233
 Alpha virt. eigenvalues --    1.88666   1.89455   1.89631   1.89744   1.89845
 Alpha virt. eigenvalues --    1.90332   1.90469   1.90689   1.91361   1.92443
 Alpha virt. eigenvalues --    1.93032   1.93070   1.93248   1.93285   1.93403
 Alpha virt. eigenvalues --    1.93758   1.94178   1.94649   1.95081   1.95341
 Alpha virt. eigenvalues --    1.95932   1.96301   1.96513   1.96895   1.97141
 Alpha virt. eigenvalues --    1.98086   1.98094   1.99550   2.00208   2.01009
 Alpha virt. eigenvalues --    2.01104   2.01247   2.01806   2.02385   2.02729
 Alpha virt. eigenvalues --    2.03669   2.04060   2.04077   2.04254   2.05106
 Alpha virt. eigenvalues --    2.05797   2.07651   2.08040   2.09325   2.11505
 Alpha virt. eigenvalues --    2.12589   2.13027   2.13324   2.14669   2.15543
 Alpha virt. eigenvalues --    2.17046   2.18365   2.18553   2.19130   2.19929
 Alpha virt. eigenvalues --    2.20676   2.21670   2.21754   2.22883   2.23965
 Alpha virt. eigenvalues --    2.24073   2.24234   2.24721   2.25879   2.26088
 Alpha virt. eigenvalues --    2.27328   2.27429   2.28988   2.29990   2.30512
 Alpha virt. eigenvalues --    2.31811   2.32116   2.32196   2.32356   2.32795
 Alpha virt. eigenvalues --    2.32929   2.33697   2.35180   2.35920   2.37600
 Alpha virt. eigenvalues --    2.37663   2.37914   2.38062   2.38099   2.38249
 Alpha virt. eigenvalues --    2.38544   2.38773   2.39056   2.39683   2.39737
 Alpha virt. eigenvalues --    2.41430   2.42904   2.43209   2.43604   2.44085
 Alpha virt. eigenvalues --    2.44757   2.45356   2.45766   2.46286   2.46313
 Alpha virt. eigenvalues --    2.46332   2.46351   2.46894   2.47381   2.47724
 Alpha virt. eigenvalues --    2.48450   2.48743   2.48825   2.49447   2.50067
 Alpha virt. eigenvalues --    2.50356   2.51630   2.52098   2.52855   2.52901
 Alpha virt. eigenvalues --    2.53677   2.54182   2.54374   2.54794   2.55454
 Alpha virt. eigenvalues --    2.55786   2.56128   2.56157   2.56400   2.56481
 Alpha virt. eigenvalues --    2.57614   2.57819   2.58147   2.59329   2.60017
 Alpha virt. eigenvalues --    2.60639   2.61740   2.63440   2.63551   2.63957
 Alpha virt. eigenvalues --    2.64139   2.64649   2.65100   2.65331   2.65973
 Alpha virt. eigenvalues --    2.66945   2.68232   2.68619   2.68661   2.68976
 Alpha virt. eigenvalues --    2.69439   2.70446   2.71119   2.71252   2.71264
 Alpha virt. eigenvalues --    2.72645   2.72977   2.74244   2.74423   2.75385
 Alpha virt. eigenvalues --    2.78782   2.79258   2.79305   2.80994   2.81037
 Alpha virt. eigenvalues --    2.82105   2.82467   2.84665   2.86061   2.87721
 Alpha virt. eigenvalues --    2.88987   2.91275   2.91301   2.92608   2.94556
 Alpha virt. eigenvalues --    2.96369   2.98000   2.99048   2.99410   2.99959
 Alpha virt. eigenvalues --    3.00493   3.03886   3.03929   3.03959   3.05003
 Alpha virt. eigenvalues --    3.05423   3.06379   3.09658   3.14736   3.16991
 Alpha virt. eigenvalues --    3.19031   3.19490   3.20245   3.20587   3.22796
 Alpha virt. eigenvalues --    3.23292   3.23707   3.24417   3.24653   3.24966
 Alpha virt. eigenvalues --    3.25233   3.25724   3.27132   3.27173   3.27422
 Alpha virt. eigenvalues --    3.31010   3.32550   3.33048   3.33252   3.34128
 Alpha virt. eigenvalues --    3.34403   3.35053   3.41934   3.42453   3.48364
 Alpha virt. eigenvalues --    3.49062   3.49427   3.49612   3.50616   3.63010
 Alpha virt. eigenvalues --    3.70808   3.74574   3.79380   3.82030   3.87971
 Alpha virt. eigenvalues --    3.89247   4.15319   4.15507   4.29892   4.32133
 Alpha virt. eigenvalues --    4.33134   4.33967   4.34969   4.36213   4.36268
 Alpha virt. eigenvalues --    4.36386   4.38027   4.39957   4.40995   4.42240
 Alpha virt. eigenvalues --    4.42563   4.48773   4.48929   4.48945   4.49694
 Alpha virt. eigenvalues --    4.50010   4.50096   4.51127   4.51616   4.51978
 Alpha virt. eigenvalues --    4.52550   4.52821   4.52866   4.53474   4.54373
 Alpha virt. eigenvalues --    4.55789   4.56763   4.59311   4.61492   4.62978
 Alpha virt. eigenvalues --    4.82529   4.85603   4.86604   4.87849   4.90776
 Alpha virt. eigenvalues --    5.00838
          Condensed to atoms (all electrons):
 Mulliken charges:
               1
     1  H    0.123663
     2  C   -0.013755
     3  C   -0.157506
     4  H    0.124840
     5  C   -0.127671
     6  H    0.118036
     7  C   -0.267604
     8  C   -0.121877
     9  H    0.117816
    10  C   -0.157984
    11  H    0.124761
    12  C    0.042441
    13  C   -0.163592
    14  H    0.132204
    15  C   -0.163682
    16  H    0.132082
    17  C    0.042408
    18  C   -0.263997
    19  C   -0.124975
    20  H    0.117939
    21  C   -0.159474
    22  H    0.124792
    23  C   -0.015410
    24  H    0.123720
    25  C   -0.159339
    26  H    0.124695
    27  C   -0.122142
    28  H    0.117924
    29  C    0.334064
    30  C   -0.342954
    31  H    0.152317
    32  C    0.404387
    33  C    0.093776
    34  C   -0.322139
    35  C   -0.112648
    36  H    0.127711
    37  C   -0.227762
    38  H    0.135238
    39  C    1.018422
    40  C   -0.931400
    41  C   -0.229406
    42  H    0.135216
    43  C   -0.110876
    44  H    0.127762
    45  C   -0.159562
    46  H    0.132534
    47  C   -0.159792
    48  H    0.132564
    49  C    0.095811
    50  C    0.402514
    51  C   -0.342951
    52  C    0.335330
    53  H    0.152420
    54  C   -0.321232
    55  C   -0.120826
    56  H    0.127775
    57  C   -0.223289
    58  H    0.135134
    59  C    1.019198
    60  C   -0.930509
    61  C   -0.233768
    62  H    0.135232
    63  C   -0.104333
    64  H    0.127725
 Sum of Mulliken charges =  -0.00000
 Mulliken charges with hydrogens summed into heavy atoms:
               1
     2  C    0.109907
     3  C   -0.032666
     5  C   -0.009635
     7  C   -0.267604
     8  C   -0.004061
    10  C   -0.033223
    12  C    0.042441
    13  C   -0.031388
    15  C   -0.031599
    17  C    0.042408
    18  C   -0.263997
    19  C   -0.007036
    21  C   -0.034682
    23  C    0.108310
    25  C   -0.034644
    27  C   -0.004218
    29  C    0.334064
    30  C   -0.190637
    32  C    0.404387
    33  C    0.093776
    34  C   -0.322139
    35  C    0.015063
    37  C   -0.092523
    39  C    1.018422
    40  C   -0.931400
    41  C   -0.094190
    43  C    0.016887
    45  C   -0.027028
    47  C   -0.027228
    49  C    0.095811
    50  C    0.402514
    51  C   -0.190531
    52  C    0.335330
    54  C   -0.321232
    55  C    0.006949
    57  C   -0.088155
    59  C    1.019198
    60  C   -0.930509
    61  C   -0.098535
    63  C    0.023392
 Electronic spatial extent (au):  <R**2>=          21522.8423
 Charge=             -0.0000 electrons
 Dipole moment (field-independent basis, Debye):
    X=              0.0034    Y=              0.8235    Z=              0.0032  Tot=              0.8235
 Quadrupole moment (field-independent basis, Debye-Ang):
   XX=           -275.0516   YY=           -236.4093   ZZ=           -214.6146
   XY=             -0.0015   XZ=              0.0259   YZ=              0.0268
 Traceless Quadrupole moment (field-independent basis, Debye-Ang):
   XX=            -33.0264   YY=              5.6158   ZZ=             27.4106
   XY=             -0.0015   XZ=              0.0259   YZ=              0.0268
 Octapole moment (field-independent basis, Debye-Ang**2):
  XXX=              0.0730  YYY=             31.0231  ZZZ=             -0.0091  XYY=              0.0050
  XXY=            207.1990  XXZ=              0.0594  XZZ=              0.0355  YZZ=             -4.4308
  YYZ=              0.2229  XYZ=             -0.0441
 Hexadecapole moment (field-independent basis, Debye-Ang**3):
 XXXX=         -25742.9230 YYYY=          -9553.5792 ZZZZ=          -1210.2798 XXXY=              0.4309
 XXXZ=              1.6784 YYYX=             -0.2473 YYYZ=              0.5787 ZZZX=              0.1256
 ZZZY=              0.1580 XXYY=          -5800.3212 XXZZ=          -3279.6262 YYZZ=          -1719.6946
 XXYZ=              0.5839 YYXZ=              0.1690 ZZXY=              0.0137
 N-N= 3.932619254028D+03 E-N=-1.142374822203D+04  KE= 1.523647135440D+03
 Calling FoFJK, ICntrl=      2127 FMM=T ISym2X=0 I1Cent= 0 IOpClX= 0 NMat=1 NMatS=1 NMatT=0.
 ***** Axes restored to original set *****
 -------------------------------------------------------------------
 Center     Atomic                   Forces (Hartrees/Bohr)
 Number     Number              X              Y              Z
 -------------------------------------------------------------------
      1        1          -0.008814693   -0.000432611    0.000007851
      2        6           0.013022668    0.000343611    0.000245585
      3        6           0.005722988   -0.000002448   -0.010958433
      4        1          -0.004338016    0.000013551    0.007936329
      5        6          -0.002686701    0.000056893   -0.007963157
      6        1           0.004313817    0.000108140    0.008801389
      7        6           0.009213803    0.001642526   -0.000860228
      8        6          -0.001368636   -0.000579332    0.008151713
      9        1           0.003880079    0.000356274   -0.008120856
     10        6           0.004925081    0.000411066    0.009866573
     11        1          -0.003927481   -0.000067157   -0.007187604
     12        6          -0.006874016    0.000079291    0.000068029
     13        6           0.000026481    0.010025343   -0.000161398
     14        1          -0.002513192   -0.009542771    0.000086355
     15        6          -0.000160029    0.010462502   -0.000142127
     16        1           0.002545732   -0.009484731    0.000126541
     17        6           0.007164236   -0.000939802   -0.000072514
     18        6          -0.009030790    0.002101143    0.000019923
     19        6           0.002084265   -0.000541082   -0.007541979
     20        1          -0.003790808    0.000251221    0.008134521
     21        6          -0.006347637    0.000396571   -0.009313522
     22        1           0.004146122   -0.000013318    0.007434608
     23        6          -0.012011778    0.000174591   -0.000536984
     24        1           0.008856965   -0.000454292    0.000019609
     25        6          -0.006247350    0.000556904    0.010034705
     26        1           0.004109666   -0.000108657   -0.007403679
     27        6           0.002174339   -0.000668288    0.007331706
     28        1          -0.003876828    0.000342917   -0.008163584
     29        6          -0.006332196    0.002020263   -0.000030404
     30        6          -0.014886846    0.000630684    0.000019807
     31        1           0.013986472    0.000438601   -0.000054755
     32        6          -0.008067971   -0.002458088    0.000159110
     33        6           0.007534779    0.000862953    0.000007551
     34        6           0.000794691   -0.001966800    0.000217151
     35        6          -0.010781607   -0.000207723   -0.010736973
     36        1          -0.004842403   -0.000303492    0.008064348
     37        6           0.012100153    0.000325594   -0.033949022
     38        1           0.004789235    0.000130984    0.007506031
     39        6          -0.082434961   -0.002177973    0.000317502
     40        6           0.061570596    0.001838226   -0.000046483
     41        6           0.011991705    0.000458817    0.033582438
     42        1           0.004853169    0.000079597   -0.007476189
     43        6          -0.010959841   -0.000456672    0.010607834
     44        1          -0.004740331   -0.000190626   -0.008102986
     45        6          -0.003528155   -0.009618606    0.000022584
     46        1           0.002636049    0.008877443    0.000031430
     47        6           0.003417950   -0.011597560   -0.000147893
     48        1          -0.002759689    0.009643956    0.000120374
     49        6          -0.007593684    0.001631713   -0.000374885
     50        6           0.008809006   -0.002297086   -0.000054377
     51        6           0.014486343    0.000276891    0.000035104
     52        6           0.006155511    0.001614819    0.000280965
     53        1          -0.014013529    0.000385095   -0.000071237
     54        6          -0.000653799   -0.001826588    0.000582885
     55        6           0.010773327   -0.000425709    0.009915021
     56        1           0.004856276   -0.000255183   -0.008083772
     57        6          -0.012219251    0.000545568    0.034265317
     58        1          -0.004729494    0.000049104   -0.007499040
     59        6           0.082517609   -0.002111000    0.000168070
     60        6          -0.061488265    0.001768051   -0.000013248
     61        6          -0.012167163    0.000347092   -0.034693265
     62        1          -0.004817744    0.000158098    0.007737331
     63        6           0.010741790   -0.000501325   -0.009965585
     64        1           0.004803982   -0.000177169    0.007819883
 -------------------------------------------------------------------
 Cartesian Forces:  Max     0.082517609 RMS     0.012952864

 GradGradGradGradGradGradGradGradGradGradGradGradGradGradGradGradGradGrad
 Berny optimization.
 FormGI is forming the generalized inverse of G from B-inverse, IUseBI=4.
 Internal  Forces:  Max     0.061597398 RMS     0.006576236
 Search for a local minimum.
 Step number   1 out of a maximum of  370
 All quantities printed in internal units (Hartrees-Bohrs-Radians)
 Mixed Optimization -- RFO/linear search
 Second derivative matrix not updated -- first step.
 ITU=  0
     Eigenvalues ---    0.01186   0.01186   0.01186   0.01187   0.01710
     Eigenvalues ---    0.01711   0.01714   0.01740   0.01745   0.01755
     Eigenvalues ---    0.01763   0.01769   0.01792   0.01808   0.01809
     Eigenvalues ---    0.01810   0.01811   0.01890   0.01964   0.01978
     Eigenvalues ---    0.02085   0.02088   0.02090   0.02090   0.02092
     Eigenvalues ---    0.02094   0.02095   0.02096   0.02097   0.02108
     Eigenvalues ---    0.02113   0.02116   0.02117   0.02118   0.02119
     Eigenvalues ---    0.02119   0.02120   0.02126   0.02128   0.02134
     Eigenvalues ---    0.02134   0.02134   0.02134   0.02147   0.02148
     Eigenvalues ---    0.02148   0.02148   0.02149   0.02149   0.02155
     Eigenvalues ---    0.02159   0.02161   0.02162   0.02165   0.02166
     Eigenvalues ---    0.02167   0.02168   0.02170   0.02173   0.02299
     Eigenvalues ---    0.02300   0.16000   0.16000   0.16000   0.16000
     Eigenvalues ---    0.16000   0.16000   0.16000   0.16000   0.16000
     Eigenvalues ---    0.16000   0.16000   0.16000   0.16000   0.16000
     Eigenvalues ---    0.16000   0.16000   0.16000   0.16000   0.16000
     Eigenvalues ---    0.16000   0.16000   0.16000   0.16000   0.16000
     Eigenvalues ---    0.22000   0.22000   0.22000   0.22000   0.22000
     Eigenvalues ---    0.22000   0.22487   0.22490   0.22970   0.22970
     Eigenvalues ---    0.23149   0.23478   0.23478   0.23986   0.23998
     Eigenvalues ---    0.23998   0.24481   0.24486   0.24992   0.24992
     Eigenvalues ---    0.24993   0.24994   0.24998   0.24998   0.25000
     Eigenvalues ---    0.25000   0.25000   0.25000   0.25000   0.25000
     Eigenvalues ---    0.25000   0.33243   0.33244   0.33505   0.33535
     Eigenvalues ---    0.33602   0.33602   0.33641   0.33646   0.33653
     Eigenvalues ---    0.33673   0.33673   0.33682   0.33685   0.33687
     Eigenvalues ---    0.33689   0.33696   0.33696   0.33698   0.33712
     Eigenvalues ---    0.33712   0.33730   0.33737   0.33739   0.33796
     Eigenvalues ---    0.34469   0.34473   0.35736   0.35953   0.35953
     Eigenvalues ---    0.35955   0.35957   0.37971   0.37999   0.38079
     Eigenvalues ---    0.39477   0.40188   0.41666   0.41696   0.41846
     Eigenvalues ---    0.41847   0.41897   0.41919   0.41944   0.41961
     Eigenvalues ---    0.41963   0.42041   0.42044   0.44885   0.45600
     Eigenvalues ---    0.45609   0.45618   0.45623   0.45683   0.45727
     Eigenvalues ---    0.45734   0.45741   0.46028   0.46070   0.46078
     Eigenvalues ---    0.46151   0.46506   0.46539   0.46624   0.46647
     Eigenvalues ---    0.46772   0.46775   0.48883   0.48936   0.50168
     Eigenvalues ---    0.50224
 RFO step:  Lambda=-3.92646869D-02 EMin= 1.18618269D-02
 Linear search not attempted -- first point.
 Maximum step size (   0.300) exceeded in Quadratic search.
    -- Step size scaled by   0.944
 Iteration  1 RMS(Cart)=  0.04241973 RMS(Int)=  0.00014930
 Iteration  2 RMS(Cart)=  0.00025870 RMS(Int)=  0.00000935
 Iteration  3 RMS(Cart)=  0.00000006 RMS(Int)=  0.00000935
 Variable       Old X    -DE/DX   Delta X   Delta X   Delta X     New X
                                 (Linear)    (Quad)   (Total)
    R1        2.07818  -0.00882   0.00000  -0.02214  -0.02214   2.05604
    R2        2.63428   0.00263   0.00000   0.00497   0.00496   2.63924
    R3        2.63446   0.00236   0.00000   0.00446   0.00445   2.63891
    R4        2.07940  -0.00904   0.00000  -0.02273  -0.02273   2.05668
    R5        2.63430   0.00353   0.00000   0.00661   0.00661   2.64091
    R6        2.08122  -0.00978   0.00000  -0.02466  -0.02466   2.05657
    R7        2.64778   0.00294   0.00000   0.00558   0.00558   2.65337
    R8        2.64513   0.00382   0.00000   0.00720   0.00721   2.65234
    R9        2.77452   0.01997   0.00000   0.04729   0.04729   2.82181
[...]
 Alpha  occ. eigenvalues --   -0.46236  -0.46030  -0.46022  -0.45689  -0.45287
 Alpha  occ. eigenvalues --   -0.45153  -0.44983  -0.44268  -0.43422  -0.43274
 Alpha  occ. eigenvalues --   -0.43248  -0.43039  -0.42247  -0.41491  -0.41187
 Alpha  occ. eigenvalues --   -0.40885  -0.39847  -0.39795  -0.39312  -0.39222
 Alpha  occ. eigenvalues --   -0.38277  -0.37726  -0.37223  -0.36793  -0.36678
 Alpha  occ. eigenvalues --   -0.36209  -0.35952  -0.35704  -0.35438  -0.34477
 Alpha  occ. eigenvalues --   -0.33570  -0.33333  -0.32425  -0.30455  -0.30177
 Alpha  occ. eigenvalues --   -0.30132  -0.29659  -0.28680  -0.28652  -0.27271
 Alpha  occ. eigenvalues --   -0.26702  -0.26597  -0.26417  -0.26131  -0.24614
 Alpha  occ. eigenvalues --   -0.21029  -0.17804
 Alpha virt. eigenvalues --   -0.12126  -0.11362  -0.11340  -0.08383  -0.04563
 Alpha virt. eigenvalues --   -0.03937  -0.02821  -0.02797  -0.02596  -0.02354
 Alpha virt. eigenvalues --   -0.02135  -0.02034  -0.00944  -0.00239  -0.00130
 Alpha virt. eigenvalues --    0.00142   0.00934   0.01215   0.01281   0.01429
 Alpha virt. eigenvalues --    0.01533   0.01794   0.02766   0.02777   0.03100
 Alpha virt. eigenvalues --    0.03329   0.03594   0.03762   0.03772   0.03943
 Alpha virt. eigenvalues --    0.04262   0.04417   0.04590   0.04979   0.05531
 Alpha virt. eigenvalues --    0.05552   0.05684   0.05734   0.06274   0.06360
 Alpha virt. eigenvalues --    0.06761   0.06925   0.06956   0.07369   0.07450
 Alpha virt. eigenvalues --    0.07952   0.08319   0.08555   0.08879   0.08928
 Alpha virt. eigenvalues --    0.09221   0.09391   0.09690   0.09773   0.10077
 Alpha virt. eigenvalues --    0.10698   0.10771   0.10773   0.11027   0.11671
 Alpha virt. eigenvalues --    0.11774   0.11857   0.12188   0.12231   0.12265
 Alpha virt. eigenvalues --    0.12294   0.12740   0.12935   0.13152   0.13482
 Alpha virt. eigenvalues --    0.13610   0.13675   0.13887   0.14223   0.14332
 Alpha virt. eigenvalues --    0.14515   0.14661   0.15048   0.15232   0.15346
 Alpha virt. eigenvalues --    0.15480   0.15960   0.16036   0.16395   0.16508
 Alpha virt. eigenvalues --    0.16638   0.16646   0.16742   0.16938   0.16959
 Alpha virt. eigenvalues --    0.17388   0.17492   0.17507   0.17971   0.18423
 Alpha virt. eigenvalues --    0.18558   0.18838   0.18905   0.19035   0.19216
 Alpha virt. eigenvalues --    0.19519   0.19589   0.19683   0.19786   0.20021
 Alpha virt. eigenvalues --    0.20025   0.20352   0.20376   0.20437   0.20481
 Alpha virt. eigenvalues --    0.20687   0.20797   0.21174   0.21297   0.21603
 Alpha virt. eigenvalues --    0.21693   0.21888   0.21964   0.21980   0.22211
 Alpha virt. eigenvalues --    0.22374   0.22429   0.22665   0.22801   0.22829
 Alpha virt. eigenvalues --    0.23146   0.23512   0.23663   0.23925   0.24008
 Alpha virt. eigenvalues --    0.24010   0.24259   0.24324   0.24595   0.24657
 Alpha virt. eigenvalues --    0.24902   0.25363   0.25408   0.25607   0.25693
 Alpha virt. eigenvalues --    0.25943   0.25969   0.26074   0.26187   0.26310
 Alpha virt. eigenvalues --    0.26415   0.26494   0.26860   0.27084   0.27402
 Alpha virt. eigenvalues --    0.27496   0.28010   0.28191   0.28196   0.28434
 Alpha virt. eigenvalues --    0.28505   0.28685   0.28829   0.28878   0.28994
 Alpha virt. eigenvalues --    0.29531   0.29682   0.30090   0.30154   0.30345
 Alpha virt. eigenvalues --    0.30594   0.30910   0.31026   0.31214   0.31510
 Alpha virt. eigenvalues --    0.31632   0.31984   0.32050   0.32382   0.32507
 Alpha virt. eigenvalues --    0.32718   0.32747   0.33064   0.33074   0.33350
 Alpha virt. eigenvalues --    0.33642   0.33647   0.33843   0.34295   0.34333
 Alpha virt. eigenvalues --    0.34766   0.34960   0.34984   0.35602   0.35769
 Alpha virt. eigenvalues --    0.35840   0.36334   0.36756   0.36981   0.37004
 Alpha virt. eigenvalues --    0.37369   0.37577   0.37641   0.38275   0.38664
 Alpha virt. eigenvalues --    0.39397   0.39766   0.39924   0.40249   0.40864
 Alpha virt. eigenvalues --    0.41015   0.41417   0.41785   0.41970   0.42379
 Alpha virt. eigenvalues --    0.43471   0.44022   0.44403   0.44890   0.45643
 Alpha virt. eigenvalues --    0.47730   0.47816   0.48333   0.48877   0.50121
 Alpha virt. eigenvalues --    0.50404   0.50734   0.51797   0.53821   0.53837
 Alpha virt. eigenvalues --    0.54919   0.56891   0.56987   0.58422   0.58569
 Alpha virt. eigenvalues --    0.59692   0.60261   0.60751   0.61475   0.64296
 Alpha virt. eigenvalues --    0.64435   0.65602   0.65698   0.66682   0.66749
 Alpha virt. eigenvalues --    0.66980   0.68426   0.69032   0.69330   0.69610
 Alpha virt. eigenvalues --    0.69632   0.70124   0.70354   0.71070   0.71144
 Alpha virt. eigenvalues --    0.71715   0.71920   0.71973   0.72348   0.72585
 Alpha virt. eigenvalues --    0.72676   0.73346   0.73770   0.73889   0.74120
 Alpha virt. eigenvalues --    0.74144   0.74169   0.74821   0.75053   0.75423
 Alpha virt. eigenvalues --    0.75570   0.76112   0.76362   0.76747   0.76989
 Alpha virt. eigenvalues --    0.77082   0.77470   0.77585   0.77832   0.78166
 Alpha virt. eigenvalues --    0.78395   0.78407   0.79145   0.79334   0.79477
 Alpha virt. eigenvalues --    0.79506   0.79853   0.80060   0.80308   0.80490
 Alpha virt. eigenvalues --    0.81004   0.81189   0.81797   0.81990   0.82122
 Alpha virt. eigenvalues --    0.82442   0.82478   0.82700   0.83475   0.83517
 Alpha virt. eigenvalues --    0.83781   0.84139   0.84777   0.85462   0.86085
 Alpha virt. eigenvalues --    0.86306   0.86589   0.86865   0.87627   0.88097
 Alpha virt. eigenvalues --    0.88559   0.88786   0.89411   0.89422   0.89495
 Alpha virt. eigenvalues --    0.89938   0.90300   0.91067   0.91118   0.91814
 Alpha virt. eigenvalues --    0.92413   0.92719   0.93552   0.93784   0.94080
 Alpha virt. eigenvalues --    0.94562   0.94681   0.94740   0.95431   0.96470
 Alpha virt. eigenvalues --    0.96567   0.97016   0.98532   0.98653   0.98813
 Alpha virt. eigenvalues --    0.99083   0.99320   0.99589   1.00756   1.01410
 Alpha virt. eigenvalues --    1.01622   1.02067   1.03004   1.03088   1.04098
 Alpha virt. eigenvalues --    1.05338   1.05515   1.06889   1.07001   1.07904
 Alpha virt. eigenvalues --    1.08421   1.09055   1.09734   1.10177   1.11249
 Alpha virt. eigenvalues --    1.11509   1.12069   1.12509   1.12703   1.13787
 Alpha virt. eigenvalues --    1.14151   1.14290   1.15010   1.15222   1.15737
 Alpha virt. eigenvalues --    1.16301   1.17469   1.17564   1.18136   1.18456
 Alpha virt. eigenvalues --    1.19574   1.19699   1.20383   1.20464   1.20640
 Alpha virt. eigenvalues --    1.22033   1.22066   1.22943   1.23343   1.23737
 Alpha virt. eigenvalues --    1.23965   1.24997   1.25008   1.25598   1.25910
 Alpha virt. eigenvalues --    1.26470   1.26667   1.27149   1.27374   1.28019
 Alpha virt. eigenvalues --    1.28435   1.28576   1.29098   1.30112   1.30325
 Alpha virt. eigenvalues --    1.30630   1.31632   1.31854   1.32154   1.32819
 Alpha virt. eigenvalues --    1.33152   1.33869   1.34193   1.34348   1.34985
 Alpha virt. eigenvalues --    1.35109   1.35454   1.35976   1.36614   1.36750
 Alpha virt. eigenvalues --    1.37162   1.37549   1.38053   1.39175   1.39294
 Alpha virt. eigenvalues --    1.39770   1.40143   1.40423   1.40491   1.40623
 Alpha virt. eigenvalues --    1.40956   1.41019   1.41318   1.42471   1.42684
 Alpha virt. eigenvalues --    1.43783   1.43822   1.44177   1.44517   1.44835
 Alpha virt. eigenvalues --    1.45040   1.45494   1.46096   1.46478   1.47110
 Alpha virt. eigenvalues --    1.48648   1.49145   1.51862   1.51912   1.54436
 Alpha virt. eigenvalues --    1.55946   1.56010   1.58245   1.59040   1.61082
 Alpha virt. eigenvalues --    1.63013   1.67862   1.68032   1.69350   1.69447
 Alpha virt. eigenvalues --    1.69680   1.70090   1.70579   1.71534   1.72721
 Alpha virt. eigenvalues --    1.74337   1.74511   1.75143   1.76232   1.77679
 Alpha virt. eigenvalues --    1.77707   1.79215   1.80221   1.80366   1.80974
 Alpha virt. eigenvalues --    1.82475   1.83384   1.83694   1.84116   1.84606
 Alpha virt. eigenvalues --    1.84728   1.84821   1.84895   1.85833   1.85963
 Alpha virt. eigenvalues --    1.86626   1.86834   1.87643   1.87794   1.88998
 Alpha virt. eigenvalues --    1.89106   1.90015   1.90770   1.90900   1.91332
 Alpha virt. eigenvalues --    1.91958   1.92102   1.92572   1.92726   1.93205
 Alpha virt. eigenvalues --    1.94520   1.94920   1.95110   1.95887   1.95911
 Alpha virt. eigenvalues --    1.96124   1.96376   1.97124   1.97770   1.98120
 Alpha virt. eigenvalues --    1.98401   1.99195   1.99493   1.99503   1.99907
 Alpha virt. eigenvalues --    2.00021   2.00762   2.01132   2.01544   2.01828
 Alpha virt. eigenvalues --    2.01907   2.02575   2.02854   2.02901   2.03758
 Alpha virt. eigenvalues --    2.04268   2.05260   2.05613   2.06603   2.06635
 Alpha virt. eigenvalues --    2.08037   2.08258   2.09172   2.10059   2.11637
 Alpha virt. eigenvalues --    2.15863   2.17353   2.18421   2.19323   2.20048
 Alpha virt. eigenvalues --    2.21027   2.22387   2.23167   2.23649   2.23746
 Alpha virt. eigenvalues --    2.24362   2.24629   2.25175   2.26593   2.27422
 Alpha virt. eigenvalues --    2.27751   2.28606   2.29598   2.29910   2.30323
 Alpha virt. eigenvalues --    2.30961   2.31178   2.32360   2.32587   2.32911
 Alpha virt. eigenvalues --    2.33201   2.34878   2.35129   2.35492   2.35838
 Alpha virt. eigenvalues --    2.35866   2.36504   2.37932   2.38350   2.38377
 Alpha virt. eigenvalues --    2.38654   2.38766   2.39445   2.40505   2.40537
 Alpha virt. eigenvalues --    2.41152   2.41403   2.42417   2.43476   2.43967
 Alpha virt. eigenvalues --    2.44482   2.44556   2.45006   2.46046   2.46187
 Alpha virt. eigenvalues --    2.46516   2.46700   2.47269   2.48177   2.48534
 Alpha virt. eigenvalues --    2.49233   2.49976   2.50046   2.50078   2.51112
 Alpha virt. eigenvalues --    2.51405   2.51489   2.52394   2.53059   2.53495
 Alpha virt. eigenvalues --    2.53731   2.54040   2.54637   2.54875   2.55001
 Alpha virt. eigenvalues --    2.55299   2.56541   2.56703   2.56940   2.57647
 Alpha virt. eigenvalues --    2.58016   2.58342   2.59517   2.60061   2.60179
 Alpha virt. eigenvalues --    2.60868   2.61439   2.61566   2.61859   2.62098
 Alpha virt. eigenvalues --    2.63514   2.63772   2.64410   2.65030   2.65311
 Alpha virt. eigenvalues --    2.65441   2.66165   2.66969   2.67837   2.69101
 Alpha virt. eigenvalues --    2.69672   2.71006   2.71470   2.72000   2.72864
 Alpha virt. eigenvalues --    2.73306   2.74660   2.74814   2.74939   2.76742
 Alpha virt. eigenvalues --    2.77779   2.77791   2.78130   2.79901   2.81746
 Alpha virt. eigenvalues --    2.82651   2.82896   2.84330   2.86812   2.88084
 Alpha virt. eigenvalues --    2.88170   2.89309   2.89656   2.91446   2.91626
 Alpha virt. eigenvalues --    2.92880   2.93837   2.97610   2.98185   2.99462
 Alpha virt. eigenvalues --    3.02982   3.04864   3.05773   3.05919   3.06081
 Alpha virt. eigenvalues --    3.06198   3.06247   3.10609   3.11469   3.14340
 Alpha virt. eigenvalues --    3.16733   3.16783   3.18701   3.19035   3.20672
 Alpha virt. eigenvalues --    3.21203   3.24748   3.26504   3.26594   3.28282
 Alpha virt. eigenvalues --    3.28484   3.28930   3.29514   3.30503   3.33093
 Alpha virt. eigenvalues --    3.34031   3.34779   3.35414   3.36270   3.36834
 Alpha virt. eigenvalues --    3.37083   3.40790   3.43530   3.44232   3.51665
 Alpha virt. eigenvalues --    3.52377   3.52552   3.53102   3.54625   3.64282
 Alpha virt. eigenvalues --    3.69205   3.73146   3.77393   3.79454   3.88598
 Alpha virt. eigenvalues --    3.89282   4.16560   4.16574   4.29458   4.29495
 Alpha virt. eigenvalues --    4.31060   4.32268   4.33394   4.33680   4.33879
 Alpha virt. eigenvalues --    4.36774   4.36979   4.37653   4.38527   4.40292
 Alpha virt. eigenvalues --    4.41733   4.42548   4.43359   4.44754   4.46085
 Alpha virt. eigenvalues --    4.46796   4.47032   4.48270   4.49213   4.50865
 Alpha virt. eigenvalues --    4.51098   4.51246   4.51745   4.52290   4.52925
 Alpha virt. eigenvalues --    4.53394   4.53805   4.55827   4.61806   4.62734
 Alpha virt. eigenvalues --    4.72072   4.80816   4.82905   4.85401   4.88176
 Alpha virt. eigenvalues --    4.96496
          Condensed to atoms (all electrons):
 Mulliken charges:
               1
     1  H    0.127412
     2  C   -0.117169
     3  C   -0.110115
     4  H    0.127258
     5  C   -0.376152
     6  H    0.124210
     7  C    0.222685
     8  C   -0.107138
     9  H    0.125515
    10  C   -0.181883
    11  H    0.127429
    12  C    0.265974
    13  C   -0.158813
    14  H    0.131375
    15  C   -0.159093
    16  H    0.131372
    17  C    0.266274
    18  C    0.223027
    19  C   -0.107313
    20  H    0.125515
    21  C   -0.181919
    22  H    0.127429
    23  C   -0.117209
    24  H    0.127412
    25  C   -0.110122
    26  H    0.127259
    27  C   -0.376213
    28  H    0.124206
    29  C   -0.161120
    30  C   -0.509905
    31  H    0.141270
    32  C    0.611789
    33  C    0.396474
    34  C    0.214157
    35  C    0.003593
    36  H    0.124576
    37  C   -0.693612
    38  H    0.142747
    39  C    1.195642
    40  C   -0.981047
    41  C   -0.922621
    42  H    0.139968
    43  C    0.322016
    44  H    0.134367
    45  C   -0.475463
    46  H    0.116799
    47  C   -0.475372
    48  H    0.116798
    49  C    0.396246
    50  C    0.611681
    51  C   -0.509898
    52  C   -0.161156
    53  H    0.141277
    54  C    0.213995
    55  C    0.003604
    56  H    0.124577
    57  C   -0.693541
    58  H    0.142751
    59  C    1.195690
    60  C   -0.981117
    61  C   -0.922621
    62  H    0.139963
    63  C    0.321920
    64  H    0.134363
 Sum of Mulliken charges =  -0.00000
 Mulliken charges with hydrogens summed into heavy atoms:
               1
     2  C    0.010242
     3  C    0.017144
     5  C   -0.251942
     7  C    0.222685
     8  C    0.018377
    10  C   -0.054454
    12  C    0.265974
    13  C   -0.027438
    15  C   -0.027721
    17  C    0.266274
    18  C    0.223027
    19  C    0.018202
    21  C   -0.054489
    23  C    0.010203
    25  C    0.017136
    27  C   -0.252007
    29  C   -0.161120
    30  C   -0.368636
    32  C    0.611789
    33  C    0.396474
    34  C    0.214157
    35  C    0.128168
    37  C   -0.550864
    39  C    1.195642
    40  C   -0.981047
    41  C   -0.782653
    43  C    0.456383
    45  C   -0.358664
    47  C   -0.358575
    49  C    0.396246
    50  C    0.611681
    51  C   -0.368621
    52  C   -0.161156
    54  C    0.213995
    55  C    0.128180
    57  C   -0.550790
    59  C    1.195690
    60  C   -0.981117
    61  C   -0.782658
    63  C    0.456283
 Electronic spatial extent (au):  <R**2>=          22227.4765
 Charge=              0.0000 electrons
 Dipole moment (field-independent basis, Debye):
    X=             -0.0001    Y=              1.6122    Z=             -0.0002  Tot=              1.6122
 Quadrupole moment (field-independent basis, Debye-Ang):
   XX=           -274.6407   YY=           -216.4438   ZZ=           -235.1272
   XY=              0.0011   XZ=             15.2761   YZ=              0.0009
 Traceless Quadrupole moment (field-independent basis, Debye-Ang):
   XX=            -32.5701   YY=             25.6268   ZZ=              6.9433
   XY=              0.0011   XZ=             15.2761   YZ=              0.0009
 Octapole moment (field-independent basis, Debye-Ang**2):
  XXX=             -0.0023  YYY=            -40.8745  ZZZ=             -0.0014  XYY=              0.0083
  XXY=            252.0194  XXZ=             -0.0123  XZZ=              0.0039  YZZ=             34.6982
  YYZ=             -0.0067  XYZ=            -86.0174
 Hexadecapole moment (field-independent basis, Debye-Ang**3):
 XXXX=         -24797.1116 YYYY=         -10037.1207 ZZZZ=          -1697.7568 XXXY=              0.1008
 XXXZ=           1244.7154 YYYX=              0.0414 YYYZ=             -0.0146 ZZZX=            209.0968
 ZZZY=              0.0116 XXYY=          -5318.5816 XXZZ=          -3818.9961 YYZZ=          -2252.6005
 XXYZ=              0.0746 YYXZ=            165.9021 ZZXY=             -0.0247
 N-N= 3.889904548070D+03 E-N=-1.133734762564D+04  KE= 1.523633719545D+03
 1\1\GINC-DR-PRECISION-3460\FOpt\RB3LYP\6-31+G(d,p)\C40H24\DR\10-Mar-20
 26\0\\# opt b3lyp/6-31+g(d,p) geom=connectivity\\UNITED ATOM STRUCTURE
  FOR MOLECULE UNL\\0,1\H,6.6694160195,3.0175566341,1.4268659433\C,5.61
 13805439,2.9397736732,1.1946319382\C,5.0915285784,3.5691007343,0.06075
 57163\H,5.7449680619,4.1371929963,-0.5953318473\C,3.7307205733,3.46653
 89504,-0.2376608509\H,3.333912924,3.9490073996,-1.1265615976\C,2.86424
 61307,2.7308517102,0.5891572701\C,3.4005891535,2.1050227185,1.72866679
 56\H,2.7437061943,1.5488979043,2.3912095155\C,4.7598849065,2.209650563
 4,2.0288604284\H,5.1529937235,1.7235695734,2.9171880434\C,1.4071612849
 ,2.6670700313,0.2823668126\C,0.6910333808,3.8426912973,0.1427788242\H,
 1.202333993,4.7926388069,0.2684407209\C,-0.6915135578,3.8423758115,-0.
 1484818934\H,-1.2029339896,4.7920705808,-0.2755524888\C,-1.4074805937,
 2.6664530766,-0.286412515\C,-2.8645270872,2.7296233462,-0.5934399931\C
 ,-3.400771805,2.1018184229,-1.7319171762\H,-2.7438234069,1.5446050584,
 -2.393476146\C,-4.7600405087,2.205902747,-2.0324134456\H,-5.1530556644
 ,1.7182773102,-2.9199355889\C,-5.6116285243,2.9374592214,-1.1995376195
 \H,-6.6696437673,3.0148198974,-1.43200329\C,-5.0918828431,3.5687735292
 ,-0.0667173387\H,-5.745385107,4.13800333,0.5883211444\C,-3.7311039477,
 3.4667540953,0.2319963853\H,-3.3344005491,3.9507661801,1.1201043319\C,
 -0.7100671056,1.4195224068,-0.118134851\C,-1.3786488553,0.1752920632,-
 0.1064887015\H,-2.4532643239,0.1829878949,-0.2191469585\C,-0.723971484
 8,-1.0480706828,0.0388426028\C,-1.452960619,-2.3088777856,0.2131568294
 \C,-2.8220973499,-2.4063188484,0.5757295617\C,-3.5935325749,-3.5899020
 328,0.2611274206\H,-3.1317516215,-4.378185928,-0.323009457\C,-4.906711
 3844,-3.7330474543,0.5780817659\H,-5.4575310084,-4.613256589,0.2672087
 313\C,-5.6069883459,-2.6876347895,1.3243572091\C,-6.8967604219,-2.8057
 503523,1.6449084725\C,-4.8230374374,-1.5167377348,1.7163226553\H,-5.28
 74452504,-0.7590072982,2.3365349944\C,-3.5232742653,-1.3964942764,1.33
 60275054\H,-2.9727765166,-0.5351744176,1.6938590238\C,-0.6797900891,-3
 .5036758328,0.0849602947\H,-1.1732898444,-4.4632037264,0.1862327948\C,
 0.6803931175,-3.5037129393,-0.0788640445\H,1.1740480817,-4.4633346099,
 -0.1784737849\C,1.4533768523,-2.3090219227,-0.2091383933\C,0.724204925
 7,-1.0480265396,-0.0369311242\C,1.3787008824,0.1756596881,0.106384767\
 C,0.7099262903,1.4198049599,0.1159967183\H,2.4533186554,0.1837306367,0
 .2190352916\C,2.8225104927,-2.4068420883,-0.5716244436\C,3.5941819195,
 -3.589763743,-0.2551096982\H,3.1325987279,-4.3771232622,0.3304287916\C
 ,4.9073434541,-3.7332301393,-0.5719842148\H,5.4583503552,-4.612819761,
 -0.2596934444\C,5.6073551066,-2.6889494286,-1.3201134037\C,6.897102209
 5,-2.8075640586,-1.6405783124\C,4.8231808227,-1.5188271154,-1.71390760
 78\H,5.2874049232,-0.7620521615,-2.3354233623\C,3.5234449085,-1.398154
 5988,-1.3336549354\H,2.972772657,-0.5375031325,-1.6928207719\\Version=
 ES64L-G16RevB.01\State=1-A\HF=-1538.4814479\RMSD=1.512e-09\RMSF=5.090e
 -06\Dipole=0.0000128,0.6343018,-0.0004245\Quadrupole=-23.220558,19.052
 8614,4.1676966,0.007548,12.5386224,-0.0122945\PG=C01 [X(C40H24)]\\@


 ... IT CAN BE VERY DIFFICULT, IN THESE COMPLEX TIMES,
 TO UNDERSTAND JUST HOW SCIENTISTS DO WHAT THEY DO.

                     DON MOSER IN THE FEBRUARY 1979 SMITHSONIAN
 Job cpu time:       1 days 10 hours 14 minutes 51.4 seconds.
 Elapsed time:       1 days 10 hours 42 minutes 27.6 seconds.
 File lengths (MBytes):  RWF=    509 Int=      0 D2E=      0 Chk=     78 Scr=      1
 Normal termination of Gaussian 16 at Tue Mar 10 01:47:37 2026.
